<VTKFile byte_order="LittleEndian" type="PolyData" version="0.1">
        <PolyData>
            <Piece NumberOfLines="252" NumberOfPoints="104">
                <Points>
                <DataArray Name="coords" NumberOfComponents="3" type="Float64">0.5	0.5	0.5	1.5	0.5	0.5	0.5	1.5	0.5	1.5	1.5	0.5	0.5	0.5	1.5	1.5	0.5	1.5	0.5	1.5	1.5	1.5	1.5	1.5	0.833333333333	0.416666666667	0.416666666667	1.16666666667	0.416666666667	0.416666666667	0.833333333333	0.583333333333	0.416666666667	1.16666666667	0.583333333333	0.416666666667	0.833333333333	0.416666666667	0.583333333333	1.16666666667	0.416666666667	0.583333333333	0.833333333333	0.583333333333	0.583333333333	1.16666666667	0.583333333333	0.583333333333	0.416666666667	0.833333333333	0.416666666667	0.583333333333	0.833333333333	0.416666666667	0.416666666667	1.16666666667	0.416666666667	0.583333333333	1.16666666667	0.416666666667	0.416666666667	0.833333333333	0.583333333333	0.583333333333	0.833333333333	0.583333333333	0.416666666667	1.16666666667	0.583333333333	0.583333333333	1.16666666667	0.583333333333	0.416666666667	0.416666666667	0.833333333333	0.583333333333	0.416666666667	0.833333333333	0.416666666667	0.583333333333	0.833333333333	0.583333333333	0.583333333333	0.833333333333	0.416666666667	0.416666666667	1.16666666667	0.583333333333	0.416666666667	1.16666666667	0.416666666667	0.583333333333	1.16666666667	0.583333333333	0.583333333333	1.16666666667	1.41666666667	0.833333333333	0.416666666667	1.58333333333	0.833333333333	0.416666666667	1.41666666667	1.16666666667	0.416666666667	1.58333333333	1.16666666667	0.416666666667	1.41666666667	0.833333333333	0.583333333333	1.58333333333	0.833333333333	0.583333333333	1.41666666667	1.16666666667	0.583333333333	1.58333333333	1.16666666667	0.583333333333	1.41666666667	0.416666666667	0.833333333333	1.58333333333	0.416666666667	0.833333333333	1.41666666667	0.583333333333	0.833333333333	1.58333333333	0.583333333333	0.833333333333	1.41666666667	0.416666666667	1.16666666667	1.58333333333	0.416666666667	1.16666666667	1.41666666667	0.583333333333	1.16666666667	1.58333333333	0.583333333333	1.16666666667	0.833333333333	1.41666666667	0.416666666667	1.16666666667	1.41666666667	0.416666666667	0.833333333333	1.58333333333	0.416666666667	1.16666666667	1.58333333333	0.416666666667	0.833333333333	1.41666666667	0.583333333333	1.16666666667	1.41666666667	0.583333333333	0.833333333333	1.58333333333	0.583333333333	1.16666666667	1.58333333333	0.583333333333	0.416666666667	1.41666666667	0.833333333333	0.583333333333	1.41666666667	0.833333333333	0.416666666667	1.58333333333	0.833333333333	0.583333333333	1.58333333333	0.833333333333	0.416666666667	1.41666666667	1.16666666667	0.583333333333	1.41666666667	1.16666666667	0.416666666667	1.58333333333	1.16666666667	0.583333333333	1.58333333333	1.16666666667	1.41666666667	1.41666666667	0.833333333333	1.58333333333	1.41666666667	0.833333333333	1.41666666667	1.58333333333	0.833333333333	1.58333333333	1.58333333333	0.833333333333	1.41666666667	1.41666666667	1.16666666667	1.58333333333	1.41666666667	1.16666666667	1.41666666667	1.58333333333	1.16666666667	1.58333333333	1.58333333333	1.16666666667	0.833333333333	0.416666666667	1.41666666667	1.16666666667	0.416666666667	1.41666666667	0.833333333333	0.583333333333	1.41666666667	1.16666666667	0.583333333333	1.41666666667	0.833333333333	0.416666666667	1.58333333333	1.16666666667	0.416666666667	1.58333333333	0.833333333333	0.583333333333	1.58333333333	1.16666666667	0.583333333333	1.58333333333	0.416666666667	0.833333333333	1.41666666667	0.583333333333	0.833333333333	1.41666666667	0.416666666667	1.16666666667	1.41666666667	0.583333333333	1.16666666667	1.41666666667	0.416666666667	0.833333333333	1.58333333333	0.583333333333	0.833333333333	1.58333333333	0.416666666667	1.16666666667	1.58333333333	0.583333333333	1.16666666667	1.58333333333	1.41666666667	0.833333333333	1.41666666667	1.58333333333	0.833333333333	1.41666666667	1.41666666667	1.16666666667	1.41666666667	1.58333333333	1.16666666667	1.41666666667	1.41666666667	0.833333333333	1.58333333333	1.58333333333	0.833333333333	1.58333333333	1.41666666667	1.16666666667	1.58333333333	1.58333333333	1.16666666667	1.58333333333	0.833333333333	1.41666666667	1.41666666667	1.16666666667	1.41666666667	1.41666666667	0.833333333333	1.58333333333	1.41666666667	1.16666666667	1.58333333333	1.41666666667	0.833333333333	1.41666666667	1.58333333333	1.16666666667	1.41666666667	1.58333333333	0.833333333333	1.58333333333	1.58333333333	1.16666666667	1.58333333333	1.58333333333</DataArray>
			</Points>
                <Lines>
                <DataArray Name="connectivity" NumberOfComponents="1" type="Int64">0	1	0	2	0	4	1	3	1	5	2	3	2	6	3	7	4	5	4	6	5	7	6	7	0	8	0	10	0	12	0	14	1	9	1	11	1	13	1	15	8	9	8	10	8	12	9	11	9	13	10	11	10	14	11	15	12	13	12	14	13	15	14	15	0	16	0	17	0	20	0	21	2	18	2	19	2	22	2	23	16	17	16	18	16	20	17	19	17	21	18	19	18	22	19	23	20	21	20	22	21	23	22	23	0	24	0	25	0	26	0	27	4	28	4	29	4	30	4	31	24	25	24	26	24	28	25	27	25	29	26	27	26	30	27	31	28	29	28	30	29	31	30	31	1	32	1	33	1	36	1	37	3	34	3	35	3	38	3	39	32	33	32	34	32	36	33	35	33	37	34	35	34	38	35	39	36	37	36	38	37	39	38	39	1	40	1	41	1	42	1	43	5	44	5	45	5	46	5	47	40	41	40	42	40	44	41	43	41	45	42	43	42	46	43	47	44	45	44	46	45	47	46	47	2	48	2	50	2	52	2	54	3	49	3	51	3	53	3	55	48	49	48	50	48	52	49	51	49	53	50	51	50	54	51	55	52	53	52	54	53	55	54	55	2	56	2	57	2	58	2	59	6	60	6	61	6	62	6	63	56	57	56	58	56	60	57	59	57	61	58	59	58	62	59	63	60	61	60	62	61	63	62	63	3	64	3	65	3	66	3	67	7	68	7	69	7	70	7	71	64	65	64	66	64	68	65	67	65	69	66	67	66	70	67	71	68	69	68	70	69	71	70	71	4	72	4	74	4	76	4	78	5	73	5	75	5	77	5	79	72	73	72	74	72	76	73	75	73	77	74	75	74	78	75	79	76	77	76	78	77	79	78	79	4	80	4	81	4	84	4	85	6	82	6	83	6	86	6	87	80	81	80	82	80	84	81	83	81	85	82	83	82	86	83	87	84	85	84	86	85	87	86	87	5	88	5	89	5	92	5	93	7	90	7	91	7	94	7	95	88	89	88	90	88	92	89	91	89	93	90	91	90	94	91	95	92	93	92	94	93	95	94	95	6	96	6	98	6	100	6	102	7	97	7	99	7	101	7	103	96	97	96	98	96	100	97	99	97	101	98	99	98	102	99	103	100	101	100	102	101	103	102	103</DataArray>
			<DataArray Name="offsets" NumberOfComponents="1" type="Int64">2	4	6	8	10	12	14	16	18	20	22	24	26	28	30	32	34	36	38	40	42	44	46	48	50	52	54	56	58	60	62	64	66	68	70	72	74	76	78	80	82	84	86	88	90	92	94	96	98	100	102	104	106	108	110	112	114	116	118	120	122	124	126	128	130	132	134	136	138	140	142	144	146	148	150	152	154	156	158	160	162	164	166	168	170	172	174	176	178	180	182	184	186	188	190	192	194	196	198	200	202	204	206	208	210	212	214	216	218	220	222	224	226	228	230	232	234	236	238	240	242	244	246	248	250	252	254	256	258	260	262	264	266	268	270	272	274	276	278	280	282	284	286	288	290	292	294	296	298	300	302	304	306	308	310	312	314	316	318	320	322	324	326	328	330	332	334	336	338	340	342	344	346	348	350	352	354	356	358	360	362	364	366	368	370	372	374	376	378	380	382	384	386	388	390	392	394	396	398	400	402	404	406	408	410	412	414	416	418	420	422	424	426	428	430	432	434	436	438	440	442	444	446	448	450	452	454	456	458	460	462	464	466	468	470	472	474	476	478	480	482	484	486	488	490	492	494	496	498	500	502	504</DataArray>
			</Lines>
                <PointData>
                <DataArray Name="pore.TestMultiNet_back" NumberOfComponents="1" type="Int64">0	1	0	1	0	1	0	1	0	0	0	0	0	0	0	0	0	0	0	0	0	0	0	0	0	0	0	0	0	0	0	0	0	0	0	0	0	0	0	0	0	0	0	0	0	0	0	0	0	0	0	0	0	0	0	0	0	0	0	0	0	0	0	0	0	0	0	0	0	0	0	0	0	0	0	0	0	0	0	0	0	0	0	0	0	0	0	0	0	0	0	0	0	0	0	0	0	0	0	0	0	0	0	0</DataArray>
			<DataArray Name="pore.TestMultiNet_bottom" NumberOfComponents="1" type="Int64">1	1	1	1	0	0	0	0	0	0	0	0	0	0	0	0	0	0	0	0	0	0	0	0	0	0	0	0	0	0	0	0	0	0	0	0	0	0	0	0	0	0	0	0	0	0	0	0	0	0	0	0	0	0	0	0	0	0	0	0	0	0	0	0	0	0	0	0	0	0	0	0	0	0	0	0	0	0	0	0	0	0	0	0	0	0	0	0	0	0	0	0	0	0	0	0	0	0	0	0	0	0	0	0</DataArray>
			<DataArray Name="pore.TestMultiNet_front" NumberOfComponents="1" type="Int64">1	0	1	0	1	0	1	0	0	0	0	0	0	0	0	0	0	0	0	0	0	0	0	0	0	0	0	0	0	0	0	0	0	0	0	0	0	0	0	0	0	0	0	0	0	0	0	0	0	0	0	0	0	0	0	0	0	0	0	0	0	0	0	0	0	0	0	0	0	0	0	0	0	0	0	0	0	0	0	0	0	0	0	0	0	0	0	0	0	0	0	0	0	0	0	0	0	0	0	0	0	0	0	0</DataArray>
			<DataArray Name="pore.TestMultiNet_inlet" NumberOfComponents="1" type="Int64">1	1	0	0	1	1	0	0	0	0	0	0	0	0	0	0	0	0	0	0	0	0	0	0	0	0	0	0	0	0	0	0	0	0	0	0	0	0	0	0	0	0	0	0	0	0	0	0	0	0	0	0	0	0	0	0	0	0	0	0	0	0	0	0	0	0	0	0	0	0	0	0	0	0	0	0	0	0	0	0	0	0	0	0	0	0	0	0	0	0	0	0	0	0	0	0	0	0	0	0	0	0	0	0</DataArray>
			<DataArray Name="pore.TestMultiNet_left" NumberOfComponents="1" type="Int64">1	1	0	0	1	1	0	0	0	0	0	0	0	0	0	0	0	0	0	0	0	0	0	0	0	0	0	0	0	0	0	0	0	0	0	0	0	0	0	0	0	0	0	0	0	0	0	0	0	0	0	0	0	0	0	0	0	0	0	0	0	0	0	0	0	0	0	0	0	0	0	0	0	0	0	0	0	0	0	0	0	0	0	0	0	0	0	0	0	0	0	0	0	0	0	0	0	0	0	0	0	0	0	0</DataArray>
			<DataArray Name="pore.TestMultiNet_macro" NumberOfComponents="1" type="Int64">1	1	1	1	1	1	1	1	0	0	0	0	0	0	0	0	0	0	0	0	0	0	0	0	0	0	0	0	0	0	0	0	0	0	0	0	0	0	0	0	0	0	0	0	0	0	0	0	0	0	0	0	0	0	0	0	0	0	0	0	0	0	0	0	0	0	0	0	0	0	0	0	0	0	0	0	0	0	0	0	0	0	0	0	0	0	0	0	0	0	0	0	0	0	0	0	0	0	0	0	0	0	0	0</DataArray>
			<DataArray Name="pore.TestMultiNet_micro" NumberOfComponents="1" type="Int64">0	0	0	0	0	0	0	0	1	1	1	1	1	1	1	1	1	1	1	1	1	1	1	1	1	1	1	1	1	1	1	1	1	1	1	1	1	1	1	1	1	1	1	1	1	1	1	1	1	1	1	1	1	1	1	1	1	1	1	1	1	1	1	1	1	1	1	1	1	1	1	1	1	1	1	1	1	1	1	1	1	1	1	1	1	1	1	1	1	1	1	1	1	1	1	1	1	1	1	1	1	1	1	1</DataArray>
			<DataArray Name="pore.TestMultiNet_outlet" NumberOfComponents="1" type="Int64">0	0	1	1	0	0	1	1	0	0	0	0	0	0	0	0	0	0	0	0	0	0	0	0	0	0	0	0	0	0	0	0	0	0	0	0	0	0	0	0	0	0	0	0	0	0	0	0	0	0	0	0	0	0	0	0	0	0	0	0	0	0	0	0	0	0	0	0	0	0	0	0	0	0	0	0	0	0	0	0	0	0	0	0	0	0	0	0	0	0	0	0	0	0	0	0	0	0	0	0	0	0	0	0</DataArray>
			<DataArray Name="pore.TestMultiNet_right" NumberOfComponents="1" type="Int64">0	0	1	1	0	0	1	1	0	0	0	0	0	0	0	0	0	0	0	0	0	0	0	0	0	0	0	0	0	0	0	0	0	0	0	0	0	0	0	0	0	0	0	0	0	0	0	0	0	0	0	0	0	0	0	0	0	0	0	0	0	0	0	0	0	0	0	0	0	0	0	0	0	0	0	0	0	0	0	0	0	0	0	0	0	0	0	0	0	0	0	0	0	0	0	0	0	0	0	0	0	0	0	0</DataArray>
			<DataArray Name="pore.TestMultiNet_top" NumberOfComponents="1" type="Int64">0	0	0	0	1	1	1	1	0	0	0	0	0	0	0	0	0	0	0	0	0	0	0	0	0	0	0	0	0	0	0	0	0	0	0	0	0	0	0	0	0	0	0	0	0	0	0	0	0	0	0	0	0	0	0	0	0	0	0	0	0	0	0	0	0	0	0	0	0	0	0	0	0	0	0	0	0	0	0	0	0	0	0	0	0	0	0	0	0	0	0	0	0	0	0	0	0	0	0	0	0	0	0	0</DataArray>
			<DataArray Name="pore.all" NumberOfComponents="1" type="Int64">1	1	1	1	1	1	1	1	1	1	1	1	1	1	1	1	1	1	1	1	1	1	1	1	1	1	1	1	1	1	1	1	1	1	1	1	1	1	1	1	1	1	1	1	1	1	1	1	1	1	1	1	1	1	1	1	1	1	1	1	1	1	1	1	1	1	1	1	1	1	1	1	1	1	1	1	1	1	1	1	1	1	1	1	1	1	1	1	1	1	1	1	1	1	1	1	1	1	1	1	1	1	1	1</DataArray>
			</PointData>
                <CellData>
                <DataArray Name="throat.TestMultiNet_back" NumberOfComponents="1" type="Int64">0	0	0	1	1	0	0	1	0	0	1	0	0	0	0	0	0	0	0	0	0	0	0	0	0	0	0	0	0	0	0	0	0	0	0	0	0	0	0	0	0	0	0	0	0	0	0	0	0	0	0	0	0	0	0	0	0	0	0	0	0	0	0	0	0	0	0	0	0	0	0	0	0	0	0	0	0	0	0	0	0	0	0	0	0	0	0	0	0	0	0	0	0	0	0	0	0	0	0	0	0	0	0	0	0	0	0	0	0	0	0	0	0	0	0	0	0	0	0	0	0	0	0	0	0	0	0	0	0	0	0	0	0	0	0	0	0	0	0	0	0	0	0	0	0	0	0	0	0	0	0	0	0	0	0	0	0	0	0	0	0	0	0	0	0	0	0	0	0	0	0	0	0	0	0	0	0	0	0	0	0	0	0	0	0	0	0	0	0	0	0	0	0	0	0	0	0	0	0	0	0	0	0	0	0	0	0	0	0	0	0	0	0	0	0	0	0	0	0	0	0	0	0	0	0	0	0	0	0	0	0	0	0	0	0	0	0	0	0	0	0	0	0	0	0	0	0	0	0	0	0	0</DataArray>
			<DataArray Name="throat.TestMultiNet_bottom" NumberOfComponents="1" type="Int64">1	1	0	1	0	1	0	0	0	0	0	0	0	0	0	0	0	0	0	0	0	0	0	0	0	0	0	0	0	0	0	0	0	0	0	0	0	0	0	0	0	0	0	0	0	0	0	0	0	0	0	0	0	0	0	0	0	0	0	0	0	0	0	0	0	0	0	0	0	0	0	0	0	0	0	0	0	0	0	0	0	0	0	0	0	0	0	0	0	0	0	0	0	0	0	0	0	0	0	0	0	0	0	0	0	0	0	0	0	0	0	0	0	0	0	0	0	0	0	0	0	0	0	0	0	0	0	0	0	0	0	0	0	0	0	0	0	0	0	0	0	0	0	0	0	0	0	0	0	0	0	0	0	0	0	0	0	0	0	0	0	0	0	0	0	0	0	0	0	0	0	0	0	0	0	0	0	0	0	0	0	0	0	0	0	0	0	0	0	0	0	0	0	0	0	0	0	0	0	0	0	0	0	0	0	0	0	0	0	0	0	0	0	0	0	0	0	0	0	0	0	0	0	0	0	0	0	0	0	0	0	0	0	0	0	0	0	0	0	0	0	0	0	0	0	0	0	0	0	0	0	0</DataArray>
			<DataArray Name="throat.TestMultiNet_front" NumberOfComponents="1" type="Int64">0	1	1	0	0	0	1	0	0	1	0	0	0	0	0	0	0	0	0	0	0	0	0	0	0	0	0	0	0	0	0	0	0	0	0	0	0	0	0	0	0	0	0	0	0	0	0	0	0	0	0	0	0	0	0	0	0	0	0	0	0	0	0	0	0	0	0	0	0	0	0	0	0	0	0	0	0	0	0	0	0	0	0	0	0	0	0	0	0	0	0	0	0	0	0	0	0	0	0	0	0	0	0	0	0	0	0	0	0	0	0	0	0	0	0	0	0	0	0	0	0	0	0	0	0	0	0	0	0	0	0	0	0	0	0	0	0	0	0	0	0	0	0	0	0	0	0	0	0	0	0	0	0	0	0	0	0	0	0	0	0	0	0	0	0	0	0	0	0	0	0	0	0	0	0	0	0	0	0	0	0	0	0	0	0	0	0	0	0	0	0	0	0	0	0	0	0	0	0	0	0	0	0	0	0	0	0	0	0	0	0	0	0	0	0	0	0	0	0	0	0	0	0	0	0	0	0	0	0	0	0	0	0	0	0	0	0	0	0	0	0	0	0	0	0	0	0	0	0	0	0	0</DataArray>
			<DataArray Name="throat.TestMultiNet_inlet" NumberOfComponents="1" type="Int64">1	0	1	0	1	0	0	0	1	0	0	0	0	0	0	0	0	0	0	0	0	0	0	0	0	0	0	0	0	0	0	0	0	0	0	0	0	0	0	0	0	0	0	0	0	0	0	0	0	0	0	0	0	0	0	0	0	0	0	0	0	0	0	0	0	0	0	0	0	0	0	0	0	0	0	0	0	0	0	0	0	0	0	0	0	0	0	0	0	0	0	0	0	0	0	0	0	0	0	0	0	0	0	0	0	0	0	0	0	0	0	0	0	0	0	0	0	0	0	0	0	0	0	0	0	0	0	0	0	0	0	0	0	0	0	0	0	0	0	0	0	0	0	0	0	0	0	0	0	0	0	0	0	0	0	0	0	0	0	0	0	0	0	0	0	0	0	0	0	0	0	0	0	0	0	0	0	0	0	0	0	0	0	0	0	0	0	0	0	0	0	0	0	0	0	0	0	0	0	0	0	0	0	0	0	0	0	0	0	0	0	0	0	0	0	0	0	0	0	0	0	0	0	0	0	0	0	0	0	0	0	0	0	0	0	0	0	0	0	0	0	0	0	0	0	0	0	0	0	0	0	0</DataArray>
			<DataArray Name="throat.TestMultiNet_left" NumberOfComponents="1" type="Int64">1	0	1	0	1	0	0	0	1	0	0	0	0	0	0	0	0	0	0	0	0	0	0	0	0	0	0	0	0	0	0	0	0	0	0	0	0	0	0	0	0	0	0	0	0	0	0	0	0	0	0	0	0	0	0	0	0	0	0	0	0	0	0	0	0	0	0	0	0	0	0	0	0	0	0	0	0	0	0	0	0	0	0	0	0	0	0	0	0	0	0	0	0	0	0	0	0	0	0	0	0	0	0	0	0	0	0	0	0	0	0	0	0	0	0	0	0	0	0	0	0	0	0	0	0	0	0	0	0	0	0	0	0	0	0	0	0	0	0	0	0	0	0	0	0	0	0	0	0	0	0	0	0	0	0	0	0	0	0	0	0	0	0	0	0	0	0	0	0	0	0	0	0	0	0	0	0	0	0	0	0	0	0	0	0	0	0	0	0	0	0	0	0	0	0	0	0	0	0	0	0	0	0	0	0	0	0	0	0	0	0	0	0	0	0	0	0	0	0	0	0	0	0	0	0	0	0	0	0	0	0	0	0	0	0	0	0	0	0	0	0	0	0	0	0	0	0	0	0	0	0	0</DataArray>
			<DataArray Name="throat.TestMultiNet_macro" NumberOfComponents="1" type="Int64">1	1	1	1	1	1	1	1	1	1	1	1	0	0	0	0	0	0	0	0	0	0	0	0	0	0	0	0	0	0	0	0	0	0	0	0	0	0	0	0	0	0	0	0	0	0	0	0	0	0	0	0	0	0	0	0	0	0	0	0	0	0	0	0	0	0	0	0	0	0	0	0	0	0	0	0	0	0	0	0	0	0	0	0	0	0	0	0	0	0	0	0	0	0	0	0	0	0	0	0	0	0	0	0	0	0	0	0	0	0	0	0	0	0	0	0	0	0	0	0	0	0	0	0	0	0	0	0	0	0	0	0	0	0	0	0	0	0	0	0	0	0	0	0	0	0	0	0	0	0	0	0	0	0	0	0	0	0	0	0	0	0	0	0	0	0	0	0	0	0	0	0	0	0	0	0	0	0	0	0	0	0	0	0	0	0	0	0	0	0	0	0	0	0	0	0	0	0	0	0	0	0	0	0	0	0	0	0	0	0	0	0	0	0	0	0	0	0	0	0	0	0	0	0	0	0	0	0	0	0	0	0	0	0	0	0	0	0	0	0	0	0	0	0	0	0	0	0	0	0	0	0</DataArray>
			<DataArray Name="throat.TestMultiNet_micro" NumberOfComponents="1" type="Int64">0	0	0	0	0	0	0	0	0	0	0	0	1	1	1	1	1	1	1	1	1	1	1	1	1	1	1	1	1	1	1	1	1	1	1	1	1	1	1	1	1	1	1	1	1	1	1	1	1	1	1	1	1	1	1	1	1	1	1	1	1	1	1	1	1	1	1	1	1	1	1	1	1	1	1	1	1	1	1	1	1	1	1	1	1	1	1	1	1	1	1	1	1	1	1	1	1	1	1	1	1	1	1	1	1	1	1	1	1	1	1	1	1	1	1	1	1	1	1	1	1	1	1	1	1	1	1	1	1	1	1	1	1	1	1	1	1	1	1	1	1	1	1	1	1	1	1	1	1	1	1	1	1	1	1	1	1	1	1	1	1	1	1	1	1	1	1	1	1	1	1	1	1	1	1	1	1	1	1	1	1	1	1	1	1	1	1	1	1	1	1	1	1	1	1	1	1	1	1	1	1	1	1	1	1	1	1	1	1	1	1	1	1	1	1	1	1	1	1	1	1	1	1	1	1	1	1	1	1	1	1	1	1	1	1	1	1	1	1	1	1	1	1	1	1	1	1	1	1	1	1	1</DataArray>
			<DataArray Name="throat.TestMultiNet_outlet" NumberOfComponents="1" type="Int64">0	0	0	0	0	1	1	1	0	0	0	1	0	0	0	0	0	0	0	0	0	0	0	0	0	0	0	0	0	0	0	0	0	0	0	0	0	0	0	0	0	0	0	0	0	0	0	0	0	0	0	0	0	0	0	0	0	0	0	0	0	0	0	0	0	0	0	0	0	0	0	0	0	0	0	0	0	0	0	0	0	0	0	0	0	0	0	0	0	0	0	0	0	0	0	0	0	0	0	0	0	0	0	0	0	0	0	0	0	0	0	0	0	0	0	0	0	0	0	0	0	0	0	0	0	0	0	0	0	0	0	0	0	0	0	0	0	0	0	0	0	0	0	0	0	0	0	0	0	0	0	0	0	0	0	0	0	0	0	0	0	0	0	0	0	0	0	0	0	0	0	0	0	0	0	0	0	0	0	0	0	0	0	0	0	0	0	0	0	0	0	0	0	0	0	0	0	0	0	0	0	0	0	0	0	0	0	0	0	0	0	0	0	0	0	0	0	0	0	0	0	0	0	0	0	0	0	0	0	0	0	0	0	0	0	0	0	0	0	0	0	0	0	0	0	0	0	0	0	0	0	0</DataArray>
			<DataArray Name="throat.TestMultiNet_right" NumberOfComponents="1" type="Int64">0	0	0	0	0	1	1	1	0	0	0	1	0	0	0	0	0	0	0	0	0	0	0	0	0	0	0	0	0	0	0	0	0	0	0	0	0	0	0	0	0	0	0	0	0	0	0	0	0	0	0	0	0	0	0	0	0	0	0	0	0	0	0	0	0	0	0	0	0	0	0	0	0	0	0	0	0	0	0	0	0	0	0	0	0	0	0	0	0	0	0	0	0	0	0	0	0	0	0	0	0	0	0	0	0	0	0	0	0	0	0	0	0	0	0	0	0	0	0	0	0	0	0	0	0	0	0	0	0	0	0	0	0	0	0	0	0	0	0	0	0	0	0	0	0	0	0	0	0	0	0	0	0	0	0	0	0	0	0	0	0	0	0	0	0	0	0	0	0	0	0	0	0	0	0	0	0	0	0	0	0	0	0	0	0	0	0	0	0	0	0	0	0	0	0	0	0	0	0	0	0	0	0	0	0	0	0	0	0	0	0	0	0	0	0	0	0	0	0	0	0	0	0	0	0	0	0	0	0	0	0	0	0	0	0	0	0	0	0	0	0	0	0	0	0	0	0	0	0	0	0	0</DataArray>
			<DataArray Name="throat.TestMultiNet_top" NumberOfComponents="1" type="Int64">0	0	0	0	0	0	0	0	1	1	1	1	0	0	0	0	0	0	0	0	0	0	0	0	0	0	0	0	0	0	0	0	0	0	0	0	0	0	0	0	0	0	0	0	0	0	0	0	0	0	0	0	0	0	0	0	0	0	0	0	0	0	0	0	0	0	0	0	0	0	0	0	0	0	0	0	0	0	0	0	0	0	0	0	0	0	0	0	0	0	0	0	0	0	0	0	0	0	0	0	0	0	0	0	0	0	0	0	0	0	0	0	0	0	0	0	0	0	0	0	0	0	0	0	0	0	0	0	0	0	0	0	0	0	0	0	0	0	0	0	0	0	0	0	0	0	0	0	0	0	0	0	0	0	0	0	0	0	0	0	0	0	0	0	0	0	0	0	0	0	0	0	0	0	0	0	0	0	0	0	0	0	0	0	0	0	0	0	0	0	0	0	0	0	0	0	0	0	0	0	0	0	0	0	0	0	0	0	0	0	0	0	0	0	0	0	0	0	0	0	0	0	0	0	0	0	0	0	0	0	0	0	0	0	0	0	0	0	0	0	0	0	0	0	0	0	0	0	0	0	0	0</DataArray>
			<DataArray Name="throat.all" NumberOfComponents="1" type="Int64">1	1	1	1	1	1	1	1	1	1	1	1	1	1	1	1	1	1	1	1	1	1	1	1	1	1	1	1	1	1	1	1	1	1	1	1	1	1	1	1	1	1	1	1	1	1	1	1	1	1	1	1	1	1	1	1	1	1	1	1	1	1	1	1	1	1	1	1	1	1	1	1	1	1	1	1	1	1	1	1	1	1	1	1	1	1	1	1	1	1	1	1	1	1	1	1	1	1	1	1	1	1	1	1	1	1	1	1	1	1	1	1	1	1	1	1	1	1	1	1	1	1	1	1	1	1	1	1	1	1	1	1	1	1	1	1	1	1	1	1	1	1	1	1	1	1	1	1	1	1	1	1	1	1	1	1	1	1	1	1	1	1	1	1	1	1	1	1	1	1	1	1	1	1	1	1	1	1	1	1	1	1	1	1	1	1	1	1	1	1	1	1	1	1	1	1	1	1	1	1	1	1	1	1	1	1	1	1	1	1	1	1	1	1	1	1	1	1	1	1	1	1	1	1	1	1	1	1	1	1	1	1	1	1	1	1	1	1	1	1	1	1	1	1	1	1	1	1	1	1	1	1</DataArray>
			</CellData>
            </Piece>
        </PolyData>
    </VTKFile>