<VTKFile byte_order="LittleEndian" type="PolyData" version="0.1">
        <PolyData>
            <Piece NumberOfLines="3942" NumberOfPoints="1485">
                <Points>
                <DataArray Name="coords" NumberOfComponents="3" type="Float64">0.5	0.5	0.5	1.5	0.5	0.5	2.5	0.5	0.5	0.5	1.5	0.5	1.5	1.5	0.5	2.5	1.5	0.5	0.5	2.5	0.5	1.5	2.5	0.5	2.5	2.5	0.5	0.5	0.5	1.5	1.5	0.5	1.5	2.5	0.5	1.5	0.5	1.5	1.5	1.5	1.5	1.5	2.5	1.5	1.5	0.5	2.5	1.5	1.5	2.5	1.5	2.5	2.5	1.5	0.5	0.5	2.5	1.5	0.5	2.5	2.5	0.5	2.5	0.5	1.5	2.5	1.5	1.5	2.5	2.5	1.5	2.5	0.5	2.5	2.5	1.5	2.5	2.5	2.5	2.5	2.5	0.75	0.25	0.25	1.0	0.25	0.25	1.25	0.25	0.25	0.75	0.5	0.25	1.0	0.5	0.25	1.25	0.5	0.25	0.75	0.75	0.25	1.0	0.75	0.25	1.25	0.75	0.25	0.75	0.25	0.5	1.0	0.25	0.5	1.25	0.25	0.5	0.75	0.5	0.5	1.0	0.5	0.5	1.25	0.5	0.5	0.75	0.75	0.5	1.0	0.75	0.5	1.25	0.75	0.5	0.75	0.25	0.75	1.0	0.25	0.75	1.25	0.25	0.75	0.75	0.5	0.75	1.0	0.5	0.75	1.25	0.5	0.75	0.75	0.75	0.75	1.0	0.75	0.75	1.25	0.75	0.75	0.25	0.75	0.25	0.5	0.75	0.25	0.75	0.75	0.25	0.25	1.0	0.25	0.5	1.0	0.25	0.75	1.0	0.25	0.25	1.25	0.25	0.5	1.25	0.25	0.75	1.25	0.25	0.25	0.75	0.5	0.5	0.75	0.5	0.75	0.75	0.5	0.25	1.0	0.5	0.5	1.0	0.5	0.75	1.0	0.5	0.25	1.25	0.5	0.5	1.25	0.5	0.75	1.25	0.5	0.25	0.75	0.75	0.5	0.75	0.75	0.75	0.75	0.75	0.25	1.0	0.75	0.5	1.0	0.75	0.75	1.0	0.75	0.25	1.25	0.75	0.5	1.25	0.75	0.75	1.25	0.75	0.25	0.25	0.75	0.5	0.25	0.75	0.75	0.25	0.75	0.25	0.5	0.75	0.5	0.5	0.75	0.75	0.5	0.75	0.25	0.75	0.75	0.5	0.75	0.75	0.75	0.75	0.75	0.25	0.25	1.0	0.5	0.25	1.0	0.75	0.25	1.0	0.25	0.5	1.0	0.5	0.5	1.0	0.75	0.5	1.0	0.25	0.75	1.0	0.5	0.75	1.0	0.75	0.75	1.0	0.25	0.25	1.25	0.5	0.25	1.25	0.75	0.25	1.25	0.25	0.5	1.25	0.5	0.5	1.25	0.75	0.5	1.25	0.25	0.75	1.25	0.5	0.75	1.25	0.75	0.75	1.25	1.75	0.25	0.25	2.0	0.25	0.25	2.25	0.25	0.25	1.75	0.5	0.25	2.0	0.5	0.25	2.25	0.5	0.25	1.75	0.75	0.25	2.0	0.75	0.25	2.25	0.75	0.25	1.75	0.25	0.5	2.0	0.25	0.5	2.25	0.25	0.5	1.75	0.5	0.5	2.0	0.5	0.5	2.25	0.5	0.5	1.75	0.75	0.5	2.0	0.75	0.5	2.25	0.75	0.5	1.75	0.25	0.75	2.0	0.25	0.75	2.25	0.25	0.75	1.75	0.5	0.75	2.0	0.5	0.75	2.25	0.5	0.75	1.75	0.75	0.75	2.0	0.75	0.75	2.25	0.75	0.75	1.25	0.75	0.25	1.5	0.75	0.25	1.75	0.75	0.25	1.25	1.0	0.25	1.5	1.0	0.25	1.75	1.0	0.25	1.25	1.25	0.25	1.5	1.25	0.25	1.75	1.25	0.25	1.25	0.75	0.5	1.5	0.75	0.5	1.75	0.75	0.5	1.25	1.0	0.5	1.5	1.0	0.5	1.75	1.0	0.5	1.25	1.25	0.5	1.5	1.25	0.5	1.75	1.25	0.5	1.25	0.75	0.75	1.5	0.75	0.75	1.75	0.75	0.75	1.25	1.0	0.75	1.5	1.0	0.75	1.75	1.0	0.75	1.25	1.25	0.75	1.5	1.25	0.75	1.75	1.25	0.75	1.25	0.25	0.75	1.5	0.25	0.75	1.75	0.25	0.75	1.25	0.5	0.75	1.5	0.5	0.75	1.75	0.5	0.75	1.25	0.75	0.75	1.5	0.75	0.75	1.75	0.75	0.75	1.25	0.25	1.0	1.5	0.25	1.0	1.75	0.25	1.0	1.25	0.5	1.0	1.5	0.5	1.0	1.75	0.5	1.0	1.25	0.75	1.0	1.5	0.75	1.0	1.75	0.75	1.0	1.25	0.25	1.25	1.5	0.25	1.25	1.75	0.25	1.25	1.25	0.5	1.25	1.5	0.5	1.25	1.75	0.5	1.25	1.25	0.75	1.25	1.5	0.75	1.25	1.75	0.75	1.25	2.25	0.75	0.25	2.5	0.75	0.25	2.75	0.75	0.25	2.25	1.0	0.25	2.5	1.0	0.25	2.75	1.0	0.25	2.25	1.25	0.25	2.5	1.25	0.25	2.75	1.25	0.25	2.25	0.75	0.5	2.5	0.75	0.5	2.75	0.75	0.5	2.25	1.0	0.5	2.5	1.0	0.5	2.75	1.0	0.5	2.25	1.25	0.5	2.5	1.25	0.5	2.75	1.25	0.5	2.25	0.75	0.75	2.5	0.75	0.75	2.75	0.75	0.75	2.25	1.0	0.75	2.5	1.0	0.75	2.75	1.0	0.75	2.25	1.25	0.75	2.5	1.25	0.75	2.75	1.25	0.75	2.25	0.25	0.75	2.5	0.25	0.75	2.75	0.25	0.75	2.25	0.5	0.75	2.5	0.5	0.75	2.75	0.5	0.75	2.25	0.75	0.75	2.5	0.75	0.75	2.75	0.75	0.75	2.25	0.25	1.0	2.5	0.25	1.0	2.75	0.25	1.0	2.25	0.5	1.0	2.5	0.5	1.0	2.75	0.5	1.0	2.25	0.75	1.0	2.5	0.75	1.0	2.75	0.75	1.0	2.25	0.25	1.25	2.5	0.25	1.25	2.75	0.25	1.25	2.25	0.5	1.25	2.5	0.5	1.25	2.75	0.5	1.25	2.25	0.75	1.25	2.5	0.75	1.25	2.75	0.75	1.25	0.75	1.25	0.25	1.0	1.25	0.25	1.25	1.25	0.25	0.75	1.5	0.25	1.0	1.5	0.25	1.25	1.5	0.25	0.75	1.75	0.25	1.0	1.75	0.25	1.25	1.75	0.25	0.75	1.25	0.5	1.0	1.25	0.5	1.25	1.25	0.5	0.75	1.5	0.5	1.0	1.5	0.5	1.25	1.5	0.5	0.75	1.75	0.5	1.0	1.75	0.5	1.25	1.75	0.5	0.75	1.25	0.75	1.0	1.25	0.75	1.25	1.25	0.75	0.75	1.5	0.75	1.0	1.5	0.75	1.25	1.5	0.75	0.75	1.75	0.75	1.0	1.75	0.75	1.25	1.75	0.75	0.25	1.75	0.25	0.5	1.75	0.25	0.75	1.75	0.25	0.25	2.0	0.25	0.5	2.0	0.25	0.75	2.0	0.25	0.25	2.25	0.25	0.5	2.25	0.25	0.75	2.25	0.25	0.25	1.75	0.5	0.5	1.75	0.5	0.75	1.75	0.5	0.25	2.0	0.5	0.5	2.0	0.5	0.75	2.0	0.5	0.25	2.25	0.5	0.5	2.25	0.5	0.75	2.25	0.5	0.25	1.75	0.75	0.5	1.75	0.75	0.75	1.75	0.75	0.25	2.0	0.75	0.5	2.0	0.75	0.75	2.0	0.75	0.25	2.25	0.75	0.5	2.25	0.75	0.75	2.25	0.75	0.25	1.25	0.75	0.5	1.25	0.75	0.75	1.25	0.75	0.25	1.5	0.75	0.5	1.5	0.75	0.75	1.5	0.75	0.25	1.75	0.75	0.5	1.75	0.75	0.75	1.75	0.75	0.25	1.25	1.0	0.5	1.25	1.0	0.75	1.25	1.0	0.25	1.5	1.0	0.5	1.5	1.0	0.75	1.5	1.0	0.25	1.75	1.0	0.5	1.75	1.0	0.75	1.75	1.0	0.25	1.25	1.25	0.5	1.25	1.25	0.75	1.25	1.25	0.25	1.5	1.25	0.5	1.5	1.25	0.75	1.5	1.25	0.25	1.75	1.25	0.5	1.75	1.25	0.75	1.75	1.25	1.75	1.25	0.25	2.0	1.25	0.25	2.25	1.25	0.25	1.75	1.5	0.25	2.0	1.5	0.25	2.25	1.5	0.25	1.75	1.75	0.25	2.0	1.75	0.25	2.25	1.75	0.25	1.75	1.25	0.5	2.0	1.25	0.5	2.25	1.25	0.5	1.75	1.5	0.5	2.0	1.5	0.5	2.25	1.5	0.5	1.75	1.75	0.5	2.0	1.75	0.5	2.25	1.75	0.5	1.75	1.25	0.75	2.0	1.25	0.75	2.25	1.25	0.75	1.75	1.5	0.75	2.0	1.5	0.75	2.25	1.5	0.75	1.75	1.75	0.75	2.0	1.75	0.75	2.25	1.75	0.75	1.25	1.75	0.25	1.5	1.75	0.25	1.75	1.75	0.25	1.25	2.0	0.25	1.5	2.0	0.25	1.75	2.0	0.25	1.25	2.25	0.25	1.5	2.25	0.25	1.75	2.25	0.25	1.25	1.75	0.5	1.5	1.75	0.5	1.75	1.75	0.5	1.25	2.0	0.5	1.5	2.0	0.5	1.75	2.0	0.5	1.25	2.25	0.5	1.5	2.25	0.5	1.75	2.25	0.5	1.25	1.75	0.75	1.5	1.75	0.75	1.75	1.75	0.75	1.25	2.0	0.75	1.5	2.0	0.75	1.75	2.0	0.75	1.25	2.25	0.75	1.5	2.25	0.75	1.75	2.25	0.75	1.25	1.25	0.75	1.5	1.25	0.75	1.75	1.25	0.75	1.25	1.5	0.75	1.5	1.5	0.75	1.75	1.5	0.75	1.25	1.75	0.75	1.5	1.75	0.75	1.75	1.75	0.75	1.25	1.25	1.0	1.5	1.25	1.0	1.75	1.25	1.0	1.25	1.5	1.0	1.5	1.5	1.0	1.75	1.5	1.0	1.25	1.75	1.0	1.5	1.75	1.0	1.75	1.75	1.0	1.25	1.25	1.25	1.5	1.25	1.25	1.75	1.25	1.25	1.25	1.5	1.25	1.5	1.5	1.25	1.75	1.5	1.25	1.25	1.75	1.25	1.5	1.75	1.25	1.75	1.75	1.25	2.25	1.75	0.25	2.5	1.75	0.25	2.75	1.75	0.25	2.25	2.0	0.25	2.5	2.0	0.25	2.75	2.0	0.25	2.25	2.25	0.25	2.5	2.25	0.25	2.75	2.25	0.25	2.25	1.75	0.5	2.5	1.75	0.5	2.75	1.75	0.5	2.25	2.0	0.5	2.5	2.0	0.5	2.75	2.0	0.5	2.25	2.25	0.5	2.5	2.25	0.5	2.75	2.25	0.5	2.25	1.75	0.75	2.5	1.75	0.75	2.75	1.75	0.75	2.25	2.0	0.75	2.5	2.0	0.75	2.75	2.0	0.75	2.25	2.25	0.75	2.5	2.25	0.75	2.75	2.25	0.75	2.25	1.25	0.75	2.5	1.25	0.75	2.75	1.25	0.75	2.25	1.5	0.75	2.5	1.5	0.75	2.75	1.5	0.75	2.25	1.75	0.75	2.5	1.75	0.75	2.75	1.75	0.75	2.25	1.25	1.0	2.5	1.25	1.0	2.75	1.25	1.0	2.25	1.5	1.0	2.5	1.5	1.0	2.75	1.5	1.0	2.25	1.75	1.0	2.5	1.75	1.0	2.75	1.75	1.0	2.25	1.25	1.25	2.5	1.25	1.25	2.75	1.25	1.25	2.25	1.5	1.25	2.5	1.5	1.25	2.75	1.5	1.25	2.25	1.75	1.25	2.5	1.75	1.25	2.75	1.75	1.25	0.75	2.25	0.25	1.0	2.25	0.25	1.25	2.25	0.25	0.75	2.5	0.25	1.0	2.5	0.25	1.25	2.5	0.25	0.75	2.75	0.25	1.0	2.75	0.25	1.25	2.75	0.25	0.75	2.25	0.5	1.0	2.25	0.5	1.25	2.25	0.5	0.75	2.5	0.5	1.0	2.5	0.5	1.25	2.5	0.5	0.75	2.75	0.5	1.0	2.75	0.5	1.25	2.75	0.5	0.75	2.25	0.75	1.0	2.25	0.75	1.25	2.25	0.75	0.75	2.5	0.75	1.0	2.5	0.75	1.25	2.5	0.75	0.75	2.75	0.75	1.0	2.75	0.75	1.25	2.75	0.75	0.25	2.25	0.75	0.5	2.25	0.75	0.75	2.25	0.75	0.25	2.5	0.75	0.5	2.5	0.75	0.75	2.5	0.75	0.25	2.75	0.75	0.5	2.75	0.75	0.75	2.75	0.75	0.25	2.25	1.0	0.5	2.25	1.0	0.75	2.25	1.0	0.25	2.5	1.0	0.5	2.5	1.0	0.75	2.5	1.0	0.25	2.75	1.0	0.5	2.75	1.0	0.75	2.75	1.0	0.25	2.25	1.25	0.5	2.25	1.25	0.75	2.25	1.25	0.25	2.5	1.25	0.5	2.5	1.25	0.75	2.5	1.25	0.25	2.75	1.25	0.5	2.75	1.25	0.75	2.75	1.25	1.75	2.25	0.25	2.0	2.25	0.25	2.25	2.25	0.25	1.75	2.5	0.25	2.0	2.5	0.25	2.25	2.5	0.25	1.75	2.75	0.25	2.0	2.75	0.25	2.25	2.75	0.25	1.75	2.25	0.5	2.0	2.25	0.5	2.25	2.25	0.5	1.75	2.5	0.5	2.0	2.5	0.5	2.25	2.5	0.5	1.75	2.75	0.5	2.0	2.75	0.5	2.25	2.75	0.5	1.75	2.25	0.75	2.0	2.25	0.75	2.25	2.25	0.75	1.75	2.5	0.75	2.0	2.5	0.75	2.25	2.5	0.75	1.75	2.75	0.75	2.0	2.75	0.75	2.25	2.75	0.75	1.25	2.25	0.75	1.5	2.25	0.75	1.75	2.25	0.75	1.25	2.5	0.75	1.5	2.5	0.75	1.75	2.5	0.75	1.25	2.75	0.75	1.5	2.75	0.75	1.75	2.75	0.75	1.25	2.25	1.0	1.5	2.25	1.0	1.75	2.25	1.0	1.25	2.5	1.0	1.5	2.5	1.0	1.75	2.5	1.0	1.25	2.75	1.0	1.5	2.75	1.0	1.75	2.75	1.0	1.25	2.25	1.25	1.5	2.25	1.25	1.75	2.25	1.25	1.25	2.5	1.25	1.5	2.5	1.25	1.75	2.5	1.25	1.25	2.75	1.25	1.5	2.75	1.25	1.75	2.75	1.25	2.25	2.25	0.75	2.5	2.25	0.75	2.75	2.25	0.75	2.25	2.5	0.75	2.5	2.5	0.75	2.75	2.5	0.75	2.25	2.75	0.75	2.5	2.75	0.75	2.75	2.75	0.75	2.25	2.25	1.0	2.5	2.25	1.0	2.75	2.25	1.0	2.25	2.5	1.0	2.5	2.5	1.0	2.75	2.5	1.0	2.25	2.75	1.0	2.5	2.75	1.0	2.75	2.75	1.0	2.25	2.25	1.25	2.5	2.25	1.25	2.75	2.25	1.25	2.25	2.5	1.25	2.5	2.5	1.25	2.75	2.5	1.25	2.25	2.75	1.25	2.5	2.75	1.25	2.75	2.75	1.25	0.75	0.25	1.25	1.0	0.25	1.25	1.25	0.25	1.25	0.75	0.5	1.25	1.0	0.5	1.25	1.25	0.5	1.25	0.75	0.75	1.25	1.0	0.75	1.25	1.25	0.75	1.25	0.75	0.25	1.5	1.0	0.25	1.5	1.25	0.25	1.5	0.75	0.5	1.5	1.0	0.5	1.5	1.25	0.5	1.5	0.75	0.75	1.5	1.0	0.75	1.5	1.25	0.75	1.5	0.75	0.25	1.75	1.0	0.25	1.75	1.25	0.25	1.75	0.75	0.5	1.75	1.0	0.5	1.75	1.25	0.5	1.75	0.75	0.75	1.75	1.0	0.75	1.75	1.25	0.75	1.75	0.25	0.75	1.25	0.5	0.75	1.25	0.75	0.75	1.25	0.25	1.0	1.25	0.5	1.0	1.25	0.75	1.0	1.25	0.25	1.25	1.25	0.5	1.25	1.25	0.75	1.25	1.25	0.25	0.75	1.5	0.5	0.75	1.5	0.75	0.75	1.5	0.25	1.0	1.5	0.5	1.0	1.5	0.75	1.0	1.5	0.25	1.25	1.5	0.5	1.25	1.5	0.75	1.25	1.5	0.25	0.75	1.75	0.5	0.75	1.75	0.75	0.75	1.75	0.25	1.0	1.75	0.5	1.0	1.75	0.75	1.0	1.75	0.25	1.25	1.75	0.5	1.25	1.75	0.75	1.25	1.75	0.25	0.25	1.75	0.5	0.25	1.75	0.75	0.25	1.75	0.25	0.5	1.75	0.5	0.5	1.75	0.75	0.5	1.75	0.25	0.75	1.75	0.5	0.75	1.75	0.75	0.75	1.75	0.25	0.25	2.0	0.5	0.25	2.0	0.75	0.25	2.0	0.25	0.5	2.0	0.5	0.5	2.0	0.75	0.5	2.0	0.25	0.75	2.0	0.5	0.75	2.0	0.75	0.75	2.0	0.25	0.25	2.25	0.5	0.25	2.25	0.75	0.25	2.25	0.25	0.5	2.25	0.5	0.5	2.25	0.75	0.5	2.25	0.25	0.75	2.25	0.5	0.75	2.25	0.75	0.75	2.25	1.75	0.25	1.25	2.0	0.25	1.25	2.25	0.25	1.25	1.75	0.5	1.25	2.0	0.5	1.25	2.25	0.5	1.25	1.75	0.75	1.25	2.0	0.75	1.25	2.25	0.75	1.25	1.75	0.25	1.5	2.0	0.25	1.5	2.25	0.25	1.5	1.75	0.5	1.5	2.0	0.5	1.5	2.25	0.5	1.5	1.75	0.75	1.5	2.0	0.75	1.5	2.25	0.75	1.5	1.75	0.25	1.75	2.0	0.25	1.75	2.25	0.25	1.75	1.75	0.5	1.75	2.0	0.5	1.75	2.25	0.5	1.75	1.75	0.75	1.75	2.0
[...]
                <PointData>
                <DataArray Name="pore.TestMultiNet_back" NumberOfComponents="1" type="Int64">0	0	1	0	0	1	0	0	1	0	0	1	0	0	1	0	0	1	0	0	1	0	0	1	0	0	1	0	0	0	0	0	0	0	0	0	0	0	0	0	0	0	0	0	0	0	0	0	0	0	0	0	0	0	0	0	0	0	0	0	0	0	0	0	0	0	0	0	0	0	0	0	0	0	0	0	0	0	0	0	0	0	0	0	0	0	0	0	0	0	0	0	0	0	0	0	0	0	0	0	0	0	0	0	0	0	0	0	0	1	1	0	1	1	0	1	1	0	1	1	0	1	1	0	1	1	0	1	1	0	1	1	0	1	1	0	0	0	0	0	0	0	0	0	0	0	0	0	0	0	0	0	0	0	0	0	0	0	0	0	0	0	0	0	0	0	0	0	0	0	0	0	0	0	0	0	0	0	0	0	0	0	0	0	0	0	0	0	0	1	1	1	1	1	1	1	1	1	1	1	1	1	1	1	1	1	1	1	1	1	1	1	1	1	1	1	1	1	1	1	1	1	1	1	1	1	1	1	1	1	1	1	1	1	1	1	1	1	1	1	1	1	1	0	0	0	0	0	0	0	0	0	0	0	0	0	0	0	0	0	0	0	0	0	0	0	0	0	0	0	0	0	0	0	0	0	0	0	0	0	0	0	0	0	0	0	0	0	0	0	0	0	0	0	0	0	0	0	0	0	0	0	0	0	0	0	0	0	0	0	0	0	0	0	0	0	0	0	0	0	0	0	0	0	0	1	1	0	1	1	0	1	1	0	1	1	0	1	1	0	1	1	0	1	1	0	1	1	0	1	1	0	0	0	0	0	0	0	0	0	0	0	0	0	0	0	0	0	0	0	0	0	0	0	0	0	0	0	0	0	0	0	0	0	0	0	0	0	0	0	0	0	0	0	0	0	0	0	0	0	0	0	0	0	0	1	1	1	1	1	1	1	1	1	1	1	1	1	1	1	1	1	1	1	1	1	1	1	1	1	1	1	1	1	1	1	1	1	1	1	1	1	1	1	1	1	1	1	1	1	1	1	1	1	1	1	1	1	1	0	0	0	0	0	0	0	0	0	0	0	0	0	0	0	0	0	0	0	0	0	0	0	0	0	0	0	0	0	0	0	0	0	0	0	0	0	0	0	0	0	0	0	0	0	0	0	0	0	0	0	0	0	0	0	1	1	0	1	1	0	1	1	0	1	1	0	1	1	0	1	1	0	1	1	0	1	1	0	1	1	0	0	0	0	0	0	0	0	0	0	0	0	0	0	0	0	0	0	0	0	0	0	0	0	0	0	0	1	1	1	1	1	1	1	1	1	1	1	1	1	1	1	1	1	1	1	1	1	1	1	1	1	1	1	0	0	0	0	0	0	0	0	0	0	0	0	0	0	0	0	0	0	0	0	0	0	0	0	0	0	0	0	0	0	0	0	0	0	0	0	0	0	0	0	0	0	0	0	0	0	0	0	0	0	0	0	0	0	0	0	0	0	0	0	0	0	0	0	0	0	0	0	0	0	0	0	0	0	0	0	0	0	0	0	0	0	1	1	0	1	1	0	1	1	0	1	1	0	1	1	0	1	1	0	1	1	0	1	1	0	1	1	0	0	0	0	0	0	0	0	0	0	0	0	0	0	0	0	0	0	0	0	0	0	0	0	0	0	0	0	0	0	0	0	0	0	0	0	0	0	0	0	0	0	0	0	0	0	0	0	0	0	0	0	0	0	1	1	1	1	1	1	1	1	1	1	1	1	1	1	1	1	1	1	1	1	1	1	1	1	1	1	1	1	1	1	1	1	1	1	1	1	1	1	1	1	1	1	1	1	1	1	1	1	1	1	1	1	1	1	0	0	0	0	0	0	0	0	0	0	0	0	0	0	0	0	0	0	0	0	0	0	0	0	0	0	0	0	0	0	0	0	0	0	0	0	0	0	0	0	0	0	0	0	0	0	0	0	0	0	0	0	0	0	0	0	0	0	0	0	0	0	0	0	0	0	0	0	0	0	0	0	0	0	0	0	0	0	0	0	0	0	1	1	0	1	1	0	1	1	0	1	1	0	1	1	0	1	1	0	1	1	0	1	1	0	1	1	0	0	0	0	0	0	0	0	0	0	0	0	0	0	0	0	0	0	0	0	0	0	0	0	0	0	0	0	0	0	0	0	0	0	0	0	0	0	0	0	0	0	0	0	0	0	0	0	0	0	0	0	0	0	1	1	1	1	1	1	1	1	1	1	1	1	1	1	1	1	1	1	1	1	1	1	1	1	1	1	1	1	1	1	1	1	1	1	1	1	1	1	1	1	1	1	1	1	1	1	1	1	1	1	1	1	1	1	0	0	0	0	0	0	0	0	0	0	0	0	0	0	0	0	0	0	0	0	0	0	0	0	0	0	0	0	0	0	0	0	0	0	0	0	0	0	0	0	0	0	0	0	0	0	0	0	0	0	0	0	0	0	0	1	1	0	1	1	0	1	1	0	1	1	0	1	1	0	1	1	0	1	1	0	1	1	0	1	1	0	0	0	0	0	0	0	0	0	0	0	0	0	0	0	0	0	0	0	0	0	0	0	0	0	0	0	1	1	1	1	1	1	1	1	1	1	1	1	1	1	1	1	1	1	1	1	1	1	1	1	1	1	1	0	0	0	0	0	0	0	0	0	0	0	0	0	0	0	0	0	0	0	0	0	0	0	0	0	0	0	0	0	0	0	0	0	0	0	0	0	0	0	0	0	0	0	0	0	0	0	0	0	0	0	0	0	0	0	1	1	0	1	1	0	1	1	0	1	1	0	1	1	0	1	1	0	1	1	0	1	1	0	1	1	0	0	0	0	0	0	0	0	0	0	0	0	0	0	0	0	0	0	0	0	0	0	0	0	0	0	0	1	1	1	1	1	1	1	1	1	1	1	1	1	1	1	1	1	1	1	1	1	1	1	1	1	1	1	0	0	0	0	0	0	0	0	0	0	0	0	0	0	0	0	0	0	0	0	0	0	0	0	0	0	0	0	0	0	0	0	0	0	0	0	0	0	0	0	0	0	0	0	0	0	0	0	0	0	0	0	0	0	0	1	1	0	1	1	0	1	1	0	1	1	0	1	1	0	1	1	0	1	1	0	1	1	0	1	1	0	0	0	0	0	0	0	0	0	0	0	0	0	0	0	0	0	0	0	0	0	0	0	0	0	0	0	1	1	1	1	1	1	1	1	1	1	1	1	1	1	1	1	1	1	1	1	1	1	1	1	1	1	1	0	0	0	0	0	0	0	0	0	0	0	0	0	0	0	0	0	0	0	0	0	0	0	0	0	0	0	0	1	1	0	1	1	0	1	1	0	1	1	0	1	1	0	1	1	0	1	1	0	1	1	0	1	1</DataArray>
			<DataArray Name="pore.TestMultiNet_bottom" NumberOfComponents="1" type="Int64">1	1	1	1	1	1	1	1	1	0	0	0	0	0	0	0	0	0	0	0	0	0	0	0	0	0	0	1	1	1	1	1	1	1	1	1	1	1	1	1	1	1	1	1	1	1	1	1	1	1	1	1	1	1	1	1	1	1	1	1	1	1	1	1	1	1	1	1	1	1	1	1	1	1	1	1	1	1	1	1	1	1	1	1	1	1	1	1	1	1	1	1	1	1	1	1	1	1	1	0	0	0	0	0	0	0	0	0	1	1	1	1	1	1	1	1	1	1	1	1	1	1	1	1	1	1	1	1	1	1	1	1	1	1	1	1	1	1	1	1	1	1	1	1	1	1	1	1	1	1	1	1	1	1	1	1	1	1	1	1	1	1	1	1	1	1	1	1	1	1	1	1	1	1	1	1	1	1	1	1	0	0	0	0	0	0	0	0	0	1	1	1	1	1	1	1	1	1	1	1	1	1	1	1	1	1	1	1	1	1	1	1	1	1	1	1	1	1	1	1	1	1	1	1	1	1	1	1	1	1	1	1	1	1	0	0	0	0	0	0	0	0	0	1	1	1	1	1	1	1	1	1	1	1	1	1	1	1	1	1	1	1	1	1	1	1	1	1	1	1	1	1	1	1	1	1	1	1	1	1	1	1	1	1	1	1	1	1	1	1	1	1	1	1	1	1	1	1	1	1	1	1	1	1	1	1	1	1	1	1	1	1	1	1	1	0	0	0	0	0	0	0	0	0	1	1	1	1	1	1	1	1	1	1	1	1	1	1	1	1	1	1	1	1	1	1	1	1	1	1	1	1	1	1	1	1	1	1	1	1	1	1	1	1	1	1	1	1	1	1	1	1	1	1	1	1	1	1	1	1	1	1	1	1	1	1	1	1	1	1	1	1	1	1	1	1	0	0	0	0	0	0	0	0	0	1	1	1	1	1	1	1	1	1	1	1	1	1	1	1	1	1	1	1	1	1	1	1	1	1	1	1	1	1	1	1	1	1	1	1	1	1	1	1	1	1	1	1	1	1	0	0	0	0	0	0	0	0	0	1	1	1	1	1	1	1	1	1	1	1	1	1	1	1	1	1	1	1	1	1	1	1	1	1	1	1	1	1	1	1	1	1	1	1	1	1	1	1	1	1	1	1	1	1	0	0	0	0	0	0	0	0	0	1	1	1	1	1	1	1	1	1	1	1	1	1	1	1	1	1	1	1	1	1	1	1	1	1	1	1	1	1	1	1	1	1	1	1	1	1	1	1	1	1	1	1	1	1	0	0	0	0	0	0	0	0	0	1	1	1	1	1	1	1	1	1	1	1	1	1	1	1	1	1	1	0	0	0	0	0	0	0	0	0	0	0	0	0	0	0	0	0	0	0	0	0	0	0	0	0	0	0	0	0	0	0	0	0	0	0	0	0	0	0	0	0	0	0	0	0	0	0	0	0	0	0	0	0	0	0	0	0	0	0	0	0	0	0	0	0	0	0	0	0	0	0	0	0	0	0	0	0	0	0	0	0	0	0	0	0	0	0	0	0	0	0	0	0	0	0	0	0	0	0	0	0	0	0	0	0	0	0	0	0	0	0	0	0	0	0	0	0	0	0	0	0	0	0	0	0	0	0	0	0	0	0	0	0	0	0	0	0	0	0	0	0	0	0	0	0	0	0	0	0	0	0	0	0	0	0	0	0	0	0	0	0	0	0	0	0	0	0	0	0	0	0	0	0	0	0	0	0	0	0	0	0	0	0	0	0	0	0	0	0	0	0	0	0	0	0	0	0	0	0	0	0	0	0	0	0	0	0	0	0	0	0	0	0	0	0	0	0	0	0	0	0	0	0	0	0	0	0	0	0	0	0	0	0	0	0	0	0	0	0	0	0	0	0	0	0	0	0	0	0	0	0	0	0	0	0	0	0	0	0	0	0	0	0	0	0	0	0	0	0	0	0	0	0	0	0	0	0	0	0	0	0	0	0	0	0	0	0	0	0	0	0	0	0	0	0	0	0	0	0	0	0	0	0	0	0	0	0	0	0	0	0	0	0	0	0	0	0	0	0	0	0	0	0	0	0	0	0	0	0	0	0	0	0	0	0	0	0	0	0	0	0	0	0	0	0	0	0	0	0	0	0	0	0	0	0	0	0	0	0	0	0	0	0	0	0	0	0	0	0	0	0	0	0	0	0	0	0	0	0	0	0	0	0	0	0	0	0	0	0	0	0	0	0	0	0	0	0	0	0	0	0	0	0	0	0	0	0	0	0	0	0	0	0	0	0	0	0	0	0	0	0	0	0	0	0	0	0	0	0	0	0	0	0	0	0	0	0	0	0	0	0	0	0	0	0	0	0	0	0	0	0	0	0	0	0	0	0	0	0	0	0	0	0	0	0	0	0	0	0	0	0	0	0	0	0	0	0	0	0	0	0	0	0	0	0	0	0	0	0	0	0	0	0	0	0	0	0	0	0	0	0	0	0	0	0	0	0	0	0	0	0	0	0	0	0	0	0	0	0	0	0	0	0	0	0	0	0	0	0	0	0	0	0	0	0	0	0	0	0	0	0	0	0	0	0	0	0	0	0	0	0	0	0	0	0	0	0	0	0	0	0	0	0	0	0	0	0	0	0	0	0	0	0	0	0	0	0	0	0	0	0	0	0	0	0	0	0	0	0	0	0	0	0	0	0	0	0	0	0	0	0	0	0	0	0	0	0	0	0	0	0	0	0	0	0	0	0	0	0	0	0	0	0	0	0	0	0	0	0	0	0	0	0	0	0	0	0	0	0	0	0	0	0	0	0	0	0	0	0	0	0	0	0	0	0	0	0	0	0	0	0	0	0	0	0	0	0	0	0	0	0	0	0	0	0	0	0	0	0	0	0	0	0	0	0	0	0	0	0	0	0	0	0	0	0	0	0	0	0	0	0	0	0	0	0	0	0	0	0	0	0	0	0	0	0	0	0	0	0	0	0	0	0	0	0	0	0	0	0	0	0	0	0	0	0	0	0	0	0	0	0	0	0	0	0	0	0	0	0	0	0	0	0	0	0	0	0	0	0	0	0	0	0	0	0	0	0	0	0	0	0	0	0	0	0	0	0	0	0	0	0	0	0	0	0	0	0	0	0	0	0	0	0	0	0	0	0	0	0	0	0	0	0	0	0	0	0	0	0	0	0	0	0	0	0	0	0	0	0	0	0	0	0	0	0	0	0	0	0	0	0	0	0	0	0	0	0	0	0	0	0	0	0	0	0	0	0	0	0	0	0	0	0	0	0	0	0	0	0	0	0	0	0	0	0	0	0	0	0	0	0	0	0	0	0	0	0	0	0	0	0	0	0	0	0	0	0	0	0	0	0	0	0	0	0	0	0	0	0	0</DataArray>
			<DataArray Name="pore.TestMultiNet_front" NumberOfComponents="1" type="Int64">1	0	0	1	0	0	1	0	0	1	0	0	1	0	0	1	0	0	1	0	0	1	0	0	1	0	0	1	1	0	1	1	0	1	1	0	1	1	0	1	1	0	1	1	0	1	1	0	1	1	0	1	1	0	1	1	1	1	1	1	1	1	1	1	1	1	1	1	1	1	1	1	1	1	1	1	1	1	1	1	1	1	1	1	1	1	1	1	1	1	1	1	1	1	1	1	1	1	1	1	1	1	1	1	1	1	1	1	0	0	0	0	0	0	0	0	0	0	0	0	0	0	0	0	0	0	0	0	0	0	0	0	0	0	0	0	0	0	0	0	0	0	0	0	0	0	0	0	0	0	0	0	0	0	0	0	0	0	0	0	0	0	0	0	0	0	0	0	0	0	0	0	0	0	0	0	0	0	0	0	0	0	0	0	0	0	0	0	0	0	0	0	0	0	0	0	0	0	0	0	0	0	0	0	0	0	0	0	0	0	0	0	0	0	0	0	0	0	0	0	0	0	0	0	0	0	0	0	0	0	0	0	0	0	0	0	0	0	0	0	0	0	0	1	1	0	1	1	0	1	1	0	1	1	0	1	1	0	1	1	0	1	1	0	1	1	0	1	1	0	1	1	1	1	1	1	1	1	1	1	1	1	1	1	1	1	1	1	1	1	1	1	1	1	1	1	1	1	1	1	1	1	1	1	1	1	1	1	1	1	1	1	1	1	1	1	1	1	1	1	1	1	1	1	0	0	0	0	0	0	0	0	0	0	0	0	0	0	0	0	0	0	0	0	0	0	0	0	0	0	0	0	0	0	0	0	0	0	0	0	0	0	0	0	0	0	0	0	0	0	0	0	0	0	0	0	0	0	0	0	0	0	0	0	0	0	0	0	0	0	0	0	0	0	0	0	0	0	0	0	0	0	0	0	0	0	0	0	0	0	0	0	0	0	0	0	0	0	0	0	0	0	0	0	0	0	0	0	0	0	0	0	0	0	0	0	0	0	0	0	0	0	0	0	0	0	0	0	0	0	0	0	0	0	0	0	0	0	0	1	1	0	1	1	0	1	1	0	1	1	0	1	1	0	1	1	0	1	1	0	1	1	0	1	1	0	1	1	1	1	1	1	1	1	1	1	1	1	1	1	1	1	1	1	1	1	1	1	1	1	1	1	1	0	0	0	0	0	0	0	0	0	0	0	0	0	0	0	0	0	0	0	0	0	0	0	0	0	0	0	0	0	0	0	0	0	0	0	0	0	0	0	0	0	0	0	0	0	0	0	0	0	0	0	0	0	0	0	0	0	0	0	0	0	0	0	0	0	0	0	0	0	0	0	0	0	0	0	0	0	0	0	0	0	1	1	0	1	1	0	1	1	0	1	1	0	1	1	0	1	1	0	1	1	0	1	1	0	1	1	0	1	1	1	1	1	1	1	1	1	1	1	1	1	1	1	1	1	1	1	1	1	1	1	1	1	1	1	1	1	1	1	1	1	1	1	1	1	1	1	1	1	1	1	1	1	1	1	1	1	1	1	1	1	1	0	0	0	0	0	0	0	0	0	0	0	0	0	0	0	0	0	0	0	0	0	0	0	0	0	0	0	0	0	0	0	0	0	0	0	0	0	0	0	0	0	0	0	0	0	0	0	0	0	0	0	0	0	0	0	0	0	0	0	0	0	0	0	0	0	0	0	0	0	0	0	0	0	0	0	0	0	0	0	0	0	0	0	0	0	0	0	0	0	0	0	0	0	0	0	0	0	0	0	0	0	0	0	0	0	0	0	0	0	0	0	0	0	0	0	0	0	0	0	0	0	0	0	0	0	0	0	0	0	0	0	0	0	0	0	1	1	0	1	1	0	1	1	0	1	1	0	1	1	0	1	1	0	1	1	0	1	1	0	1	1	0	1	1	1	1	1	1	1	1	1	1	1	1	1	1	1	1	1	1	1	1	1	1	1	1	1	1	1	1	1	1	1	1	1	1	1	1	1	1	1	1	1	1	1	1	1	1	1	1	1	1	1	1	1	1	0	0	0	0	0	0	0	0	0	0	0	0	0	0	0	0	0	0	0	0	0	0	0	0	0	0	0	0	0	0	0	0	0	0	0	0	0	0	0	0	0	0	0	0	0	0	0	0	0	0	0	0	0	0	0	0	0	0	0	0	0	0	0	0	0	0	0	0	0	0	0	0	0	0	0	0	0	0	0	0	0	0	0	0	0	0	0	0	0	0	0	0	0	0	0	0	0	0	0	0	0	0	0	0	0	0	0	0	0	0	0	0	0	0	0	0	0	0	0	0	0	0	0	0	0	0	0	0	0	0	0	0	0	0	0	1	1	0	1	1	0	1	1	0	1	1	0	1	1	0	1	1	0	1	1	0	1	1	0	1	1	0	1	1	1	1	1	1	1	1	1	1	1	1	1	1	1	1	1	1	1	1	1	1	1	1	1	1	1	0	0	0	0	0	0	0	0	0	0	0	0	0	0	0	0	0	0	0	0	0	0	0	0	0	0	0	0	0	0	0	0	0	0	0	0	0	0	0	0	0	0	0	0	0	0	0	0	0	0	0	0	0	0	0	0	0	0	0	0	0	0	0	0	0	0	0	0	0	0	0	0	0	0	0	0	0	0	0	0	0	1	1	0	1	1	0	1	1	0	1	1	0	1	1	0	1	1	0	1	1	0	1	1	0	1	1	0	1	1	1	1	1	1	1	1	1	1	1	1	1	1	1	1	1	1	1	1	1	1	1	1	1	1	1	0	0	0	0	0	0	0	0	0	0	0	0	0	0	0	0	0	0	0	0	0	0	0	0	0	0	0	0	0	0	0	0	0	0	0	0	0	0	0	0	0	0	0	0	0	0	0	0	0	0	0	0	0	0	0	0	0	0	0	0	0	0	0	0	0	0	0	0	0	0	0	0	0	0	0	0	0	0	0	0	0	1	1	0	1	1	0	1	1	0	1	1	0	1	1	0	1	1	0	1	1	0	1	1	0	1	1	0	1	1	1	1	1	1	1	1	1	1	1	1	1	1	1	1	1	1	1	1	1	1	1	1	1	1	1	0	0	0	0	0	0	0	0	0	0	0	0	0	0	0	0	0	0	0	0	0	0	0	0	0	0	0	0	0	0	0	0	0	0	0	0	0	0	0	0	0	0	0	0	0	0	0	0	0	0	0	0	0	0	0	0	0	0	0	0	0	0	0	0	0	0	0	0	0	0	0	0	0	0	0	0	0	0	0	0	0	1	1	0	1	1	0	1	1	0	1	1	0	1	1	0	1	1	0	1	1	0	1	1	0	1	1	0	0	0	0	0	0	0	0	0	0	0	0	0	0	0	0	0	0	0	0	0	0	0	0	0	0	0	0</DataArray>
			<DataArray Name="pore.TestMultiNet_inlet" NumberOfComponents="1" type="Int64">1	1	1	0	0	0	0	0	0	1	1	1	0	0	0	0	0	0	1	1	1	0	0	0	0	0	0	1	1	1	1	1	1	1	1	1	1	1	1	1	1	1	1	1	1	1	1	1	1	1	1	1	1	1	1	1	1	1	1	1	0	0	0	1	1	1	1	1	1	0	0	0	1	1	1	1	1	1	0	0	0	1	1	1	1	1	1	1	1	1	1	1	1	1	1	1	1	1	1	1	1	1	1	1	1	1	1	1	1	1	1	1	1	1	1	1	1	1	1	1	1	1	1	1	1	1	1	1	1	1	1	1	1	1	1	1	1	1	1	1	1	0	0	0	1	1	1	1	1	1	0	0	0	1	1	1	1	1	1	0	0	0	1	1	1	1	1	1	1	1	1	1	1	1	1	1	1	1	1	1	1	1	1	1	1	1	1	1	1	1	1	1	1	1	1	0	0	0	1	1	1	1	1	1	0	0	0	1	1	1	1	1	1	0	0	0	1	1	1	1	1	1	1	1	1	1	1	1	1	1	1	1	1	1	1	1	1	1	1	1	1	1	1	0	0	0	0	0	0	0	0	0	0	0	0	0	0	0	0	0	0	0	0	0	0	0	0	0	0	0	0	0	0	0	0	0	0	0	0	0	0	0	0	0	0	0	0	0	0	0	0	0	0	0	0	0	0	0	0	0	0	0	0	0	0	0	0	0	0	0	0	0	0	0	0	0	0	0	0	0	0	0	0	0	0	0	0	0	0	0	0	0	0	0	0	0	0	0	0	0	0	0	0	0	0	0	0	0	0	0	0	0	0	0	0	0	0	0	0	0	0	0	0	0	0	0	0	0	0	0	0	0	0	0	0	0	0	0	0	0	0	0	0	0	0	0	0	0	0	0	0	0	0	0	0	0	0	0	0	0	0	0	0	0	0	0	0	0	0	0	0	0	0	0	0	0	0	0	0	0	0	0	0	0	0	0	0	0	0	0	0	0	0	0	0	0	0	0	0	0	0	0	0	0	0	0	0	0	0	0	0	0	0	0	0	0	0	0	0	0	0	0	0	0	0	0	0	0	0	0	0	0	0	0	0	0	0	0	0	0	0	0	0	0	0	0	0	0	0	0	0	0	0	0	0	0	0	0	0	0	0	0	0	0	0	0	0	0	0	0	0	0	0	0	0	0	0	0	0	0	0	0	0	0	0	0	0	0	0	0	0	0	0	0	0	0	0	0	0	0	0	0	0	0	0	0	0	0	0	0	0	0	0	0	0	0	0	0	0	0	0	0	0	0	0	0	0	0	0	0	0	0	0	0	0	0	0	0	0	0	0	0	0	0	0	0	0	0	0	0	0	0	0	0	1	1	1	1	1	1	1	1	1	1	1	1	1	1	1	1	1	1	1	1	1	1	1	1	1	1	1	1	1	1	1	1	1	0	0	0	1	1	1	1	1	1	0	0	0	1	1	1	1	1	1	0	0	0	1	1	1	1	1	1	1	1	1	1	1	1	1	1	1	1	1	1	1	1	1	1	1	1	1	1	1	1	1	1	1	1	1	1	1	1	1	1	1	1	1	1	1	1	1	1	1	1	1	1	1	1	1	1	1	1	1	1	1	1	0	0	0	1	1	1	1	1	1	0	0	0	1	1	1	1	1	1	0	0	0	1	1	1	1	1	1	1	1	1	1	1	1	1	1	1	1	1	1	1	1	1	1	1	1	1	1	1	1	1	1	1	1	1	0	0	0	1	1	1	1	1	1	0	0	0	1	1	1	1	1	1	0	0	0	1	1	1	1	1	1	1	1	1	1	1	1	1	1	1	1	1	1	1	1	1	1	1	1	1	1	1	0	0	0	0	0	0	0	0	0	0	0	0	0	0	0	0	0	0	0	0	0	0	0	0	0	0	0	0	0	0	0	0	0	0	0	0	0	0	0	0	0	0	0	0	0	0	0	0	0	0	0	0	0	0	0	0	0	0	0	0	0	0	0	0	0	0	0	0	0	0	0	0	0	0	0	0	0	0	0	0	0	0	0	0	0	0	0	0	0	0	0	0	0	0	0	0	0	0	0	0	0	0	0	0	0	0	0	0	0	0	0	0	0	0	0	0	0	0	0	0	0	0	0	0	0	0	0	0	0	0	0	0	0	0	0	0	0	0	0	0	0	0	0	0	0	0	0	0	0	0	0	0	0	0	0	0	0	0	0	0	0	0	0	0	0	0	0	0	0	0	0	0	0	0	0	0	0	0	0	0	0	0	0	0	0	0	0	0	0	0	0	0	0	0	0	0	0	0	0	0	0	0	0	0	0	0	0	0	0	0	0	0	0	0	0	0	0	0	0	0	0	0	0	0	0	0	0	0	0	0	0	0	0	0	0	0	0	0	0	0	0	0	0	0	0	0	0	0	0	0	0	0	0	0	0	0	0	0	0	0	0	0	0	0	0	0	0	0	0	0	0	0	0	0	0	0	0	0	0	0	0	0	0	0	0	0	0	0	0	0	0	0	0	0	0	0	0	0	0	0	0	0	0	0	0	0	0	0	0	0	0	0	0	0	0	0	0	0	0	0	0	0	0	0	0	0	0	0	0	0	0	0	0	0	0	0	0	0	0	0	0	0	0	0	0	0	0	0	0	0	0	1	1	1	1	1	1	1	1	1	1	1	1	1	1	1	1	1	1	1	1	1	1	1	1	1	1	1	1	1	1	1	1	1	0	0	0	1	1	1	1	1	1	0	0	0	1	1	1	1	1	1	0	0	0	1	1	1	1	1	1	1	1	1	1	1	1	1	1	1	1	1	1	1	1	1	1	1	1	1	1	1	1	1	1	1	1	1	0	0	0	1	1	1	1	1	1	0	0	0	1	1	1	1	1	1	0	0	0	1	1	1	1	1	1	0	0	0	1	1	1	1	1	1	0	0	0	1	1	1	1	1	1	0	0	0	0	0	0	0	0	0	0	0	0	0	0	0	0	0	0	0	0	0	0	0	0	0	0	0	0	0	0	0	0	0	0	0	0	0	0	0	0	0	0	0	0	0	0	0	0	0	0	0	0	0	0	0	0	0	0	0	0	0	0	0	0	0	0	0	0	0	0	0	0	0	0	0	0	0	0	0	0	0	0	0	0	0	0	0	0	0	0	0	0	0	0	0	0	0	0	0	0	0	0	0	0	0	0	0	0	0	0	0	0	0	0	0	0	0	0	0	0	0	0	0	0	0	0	0	0	0	0	0	0	0	0	0	0	0	0	0	0	0	0	0	0	0	0	0	0	0	0	0	0	0	0	0	0	0	0	0	0	0	0	0	0	0	0	0	0	0	0	0	0	0	0	0	0	0	0	0	0	0	0	0	0	0	0	0	0	0	0	0	0</DataArray>
			<DataArray Name="pore.TestMultiNet_left" NumberOfComponents="1" type="Int64">1	1	1	0	0	0	0	0	0	1	1	1	0	0	0	0	0	0	1	1	1	0	0	0	0	0	0	1	1	1	1	1	1	1	1	1	1	1	1	1	1	1	1	1	1	1	1	1	1	1	1	1	1	1	1	1	1	1	1	1	0	0	0	1	1	1	1	1	1	0	0	0	1	1	1	1	1	1	0	0	0	1	1	1	1	1	1	1	1	1	1	1	1	1	1	1	1	1	1	1	1	1	1	1	1	1	1	1	1	1	1	1	1	1	1	1	1	1	1	1	1	1	1	1	1	1	1	1	1	1	1	1	1	1	1	1	1	1	1	1	1	0	0	0	1	1	1	1	1	1	0	0	0	1	1	1	1	1	1	0	0	0	1	1	1	1	1	1	1	1	1	1	1	1	1	1	1	1	1	1	1	1	1	1	1	1	1	1	1	1	1	1	1	1	1	0	0	0	1	1	1	1	1	1	0	0	0	1	1	1	1	1	1	0	0	0	1	1	1	1	1	1	1	1	1	1	1	1	1	1	1	1	1	1	1	1	1	1	1	1	1	1	1	0	0	0	0	0	0	0	0	0	0	0	0	0	0	0	0	0	0	0	0	0	0	0	0	0	0	0	0	0	0	0	0	0	0	0	0	0	0	0	0	0	0	0	0	0	0	0	0	0	0	0	0	0	0	0	0	0	0	0	0	0	0	0	0	0	0	0	0	0	0	0	0	0	0	0	0	0	0	0	0	0	0	0	0	0	0	0	0	0	0	0	0	0	0	0	0	0	0	0	0	0	0	0	0	0	0	0	0	0	0	0	0	0	0	0	0	0	0	0	0	0	0	0	0	0	0	0	0	0	0	0	0	0	0	0	0	0	0	0	0	0	0	0	0	0	0	0	0	0	0	0	0	0	0	0	0	0	0	0	0	0	0	0	0	0	0	0	0	0	0	0	0	0	0	0	0	0	0	0	0	0	0	0	0	0	0	0	0	0	0	0	0	0	0	0	0	0	0	0	0	0	0	0	0	0	0	0	0	0	0	0	0	0	0	0	0	0	0	0	0	0	0	0	0	0	0	0	0	0	0	0	0	0	0	0	0	0	0	0	0	0	0	0	0	0	0	0	0	0	0	0	0	0	0	0	0	0	0	0	0	0	0	0	0	0	0	0	0	0	0	0	0	0	0	0	0	0	0	0	0	0	0	0	0	0	0	0	0	0	0	0	0	0	0	0	0	0	0	0	0	0	0	0	0	0	0	0	0	0	0	0	0	0	0	0	0	0	0	0	0	0	0	0	0	0	0	0	0	0	0	0	0	0	0	0	0	0	0	0	0	0	0	0	0	0	0	0	0	0	0	0	1	1	1	1	1	1	1	1	1	1	1	1	1	1	1	1	1	1	1	1	1	1	1	1	1	1	1	1	1	1	1	1	1	0	0	0	1	1	1	1	1	1	0	0	0	1	1	1	1	1	1	0	0	0	1	1	1	1	1	1	1	1	1	1	1	1	1	1	1	1	1	1	1	1	1	1	1	1	1	1	1	1	1	1	1	1	1	1	1	1	1	1	1	1	1	1	1	1	1	1	1	1	1	1	1	1	1	1	1	1	1	1	1	1	0	0	0	1	1	1	1	1	1	0	0	0	1	1	1	1	1	1	0	0	0	1	1	1	1	1	1	1	1	1	1	1	1	1	1	1	1	1	1	1	1	1	1	1	1	1	1	1	1	1	1	1	1	1	0	0	0	1	1	1	1	1	1	0	0	0	1	1	1	1	1	1	0	0	0	1	1	1	1	1	1	1	1	1	1	1	1	1	1	1	1	1	1	1	1	1	1	1	1	1	1	1	0	0	0	0	0	0	0	0	0	0	0	0	0	0	0	0	0	0	0	0	0	0	0	0	0	0	0	0	0	0	0	0	0	0	0	0	0	0	0	0	0	0	0	0	0	0	0	0	0	0	0	0	0	0	0	0	0	0	0	0	0	0	0	0	0	0	0	0	0	0	0	0	0	0	0	0	0	0	0	0	0	0	0	0	0	0	0	0	0	0	0	0	0	0	0	0	0	0	0	0	0	0	0	0	0	0	0	0	0	0	0	0	0	0	0	0	0	0	0	0	0	0	0	0	0	0	0	0	0	0	0	0	0	0	0	0	0	0	0	0	0	0	0	0	0	0	0	0	0	0	0	0	0	0	0	0	0	0	0	0	0	0	0	0	0	0	0	0	0	0	0	0	0	0	0	0	0	0	0	0	0	0	0	0	0	0	0	0	0	0	0	0	0	0	0	0	0	0	0	0	0	0	0	0	0	0	0	0	0	0	0	0	0	0	0	0	0	0	0	0	0	0	0	0	0	0	0	0	0	0	0	0	0	0	0	0	0	0	0	0	0	0	0	0	0	0	0	0	0	0	0	0	0	0	0	0	0	0	0	0	0	0	0	0	0	0	0	0	0	0	0	0	0	0	0	0	0	0	0	0	0	0	0	0	0	0	0	0	0	0	0	0	0	0	0	0	0	0	0	0	0	0	0	0	0	0	0	0	0	0	0	0	0	0	0	0	0	0	0	0	0	0	0	0	0	0	0	0	0	0	0	0	0	0	0	0	0	0	0	0	0	0	0	0	0	0	0	0	0	0	0	1	1	1	1	1	1	1	1	1	1	1	1	1	1	1	1	1	1	1	1	1	1	1	1	1	1	1	1	1	1	1	1	1	0	0	0	1	1	1	1	1	1	0	0	0	1	1	1	1	1	1	0	0	0	1	1	1	1	1	1	1	1	1	1	1	1	1	1	1	1	1	1	1	1	1	1	1	1	1	1	1	1	1	1	1	1	1	0	0	0	1	1	1	1	1	1	0	0	0	1	1	1	1	1	1	0	0	0	1	1	1	1	1	1	0	0	0	1	1	1	1	1	1	0	0	0	1	1	1	1	1	1	0	0	0	0	0	0	0	0	0	0	0	0	0	0	0	0	0	0	0	0	0	0	0	0	0	0	0	0	0	0	0	0	0	0	0	0	0	0	0	0	0	0	0	0	0	0	0	0	0	0	0	0	0	0	0	0	0	0	0	0	0	0	0	0	0	0	0	0	0	0	0	0	0	0	0	0	0	0	0	0	0	0	0	0	0	0	0	0	0	0	0	0	0	0	0	0	0	0	0	0	0	0	0	0	0	0	0	0	0	0	0	0	0	0	0	0	0	0	0	0	0	0	0	0	0	0	0	0	0	0	0	0	0	0	0	0	0	0	0	0	0	0	0	0	0	0	0	0	0	0	0	0	0	0	0	0	0	0	0	0	0	0	0	0	0	0	0	0	0	0	0	0	0	0	0	0	0	0	0	0	0	0	0	0	0	0	0	0	0	0	0	0</DataArray>
			<DataArray Name="pore.TestMultiNet_macro" NumberOfComponents="1" type="Int64">1	1	1	1	1	1	1	1	1	1	1	1	1	1	1	1	1	1	1	1	1	1	1	1	1	1	1	0	0	0	0	0	0	0	0	0	0	0	0	0	0	0	0	0	0	0	0	0	0	0	0	0	0	0	0	0	0	0	0	0	0	0	0	0	0	0	0	0	0	0	0	0	0	0	0	0	0	0	0	0	0	0	0	0	0	0	0	0	0	0	0	0	0	0	0	0	0	0	0	0	0	0	0	0	0	0	0	0	0	0	0	0	0	0	0	0	0	0	0	0	0	0	0	0	0	0	0	0	0	0	0	0	0	0	0	0	0	0	0	0	0	0	0	0	0	0	0	0	0	0	0	0	0	0	0	0	0	0	0	0	0	0	0	0	0	0	0	0	0	0	0	0	0	0	0	0	0	0	0	0	0	0	0	0	0	0	0	0	0	0	0	0	0	0	0	0	0	0	0	0	0	0	0	0	0	0	0	0	0	0	0	0	0	0	0	0	0	0	0	0	0	0	0	0	0	0	0	0	0	0	0	0	0	0	0	0	0	0	0	0	0	0	0	0	0	0	0	0	0	0	0	0	0	0	0	0	0	0	0	0	0	0	0	0	0	0	0	0	0	0	0	0	0	0	0	0	0	0	0	0	0	0	0	0	0	0	0	0	0	0	0	0	0	0	0	0	0	0	0	0	0	0	0	0	0	0	0	0	0	0	0	0	0	0	0	0	0	0	0	0	0	0	0	0	0	0	0	0	0	0	0	0	0	0	0	0	0	0	0	0	0	0	0	0	0	0	0	0	0	0	0	0	0	0	0	0	0	0	0	0	0	0	0	0	0	0	0	0	0	0	0	0	0	0	0	0	0	0	0	0	0	0	0	0	0	0	0	0	0	0	0	0	0	0	0	0	0	0	0	0	0	0	0	0	0	0	0	0	0	0	0	0	0	0	0	0	0	0	0	0	0	0	0	0	0	0	0	0	0	0	0	0	0	0	0	0	0	0	0	0	0	0	0	0	0	0	0	0	0	0	0	0	0	0	0	0	0	0	0	0	0	0	0	0	0	0	0	0	0	0	0	0	0	0	0	0	0	0	0	0	0	0	0	0	0	0	0	0	0	0	0	0	0	0	0	0	0	0	0	0	0	0	0	0	0	0	0	0	0	0	0	0	0	0	0	0	0	0	0	0	0	0	0	0	0	0	0	0	0	0	0	0	0	0	0	0	0	0	0	0	0	0	0	0	0	0	0	0	0	0	0	0	0	0	0	0	0	0	0	0	0	0	0	0	0	0	0	0	0	0	0	0	0	0	0	0	0	0	0	0	0	0	0	0	0	0	0	0	0	0	0	0	0	0	0	0	0	0	0	0	0	0	0	0	0	0	0	0	0	0	0	0	0	0	0	0	0	0	0	0	0	0	0	0	0	0	0	0	0	0	0	0	0	0	0	0	0	0	0	0	0	0	0	0	0	0	0	0	0	0	0	0	0	0	0	0	0	0	0	0	0	0	0	0	0	0	0	0	0	0	0	0	0	0	0	0	0	0	0	0	0	0	0	0	0	0	0	0	0	0	0	0	0	0	0	0	0	0	0	0	0	0	0	0	0	0	0	0	0	0	0	0	0	0	0	0	0	0	0	0	0	0	0	0	0	0	0	0	0	0	0	0	0	0	0	0	0	0	0	0	0	0	0	0	0	0	0	0	0	0	0	0	0	0	0	0	0	0	0	0	0	0	0	0	0	0	0	0	0	0	0	0	0	0	0	0	0	0	0	0	0	0	0	0	0	0	0	0	0	0	0	0	0	0	0	0	0	0	0	0	0	0	0	0	0	0	0	0	0	0	0	0	0	0	0	0	0	0	0	0	0	0	0	0	0	0	0	0	0	0	0	0	0	0	0	0	0	0	0	0	0	0	0	0	0	0	0	0	0	0	0	0	0	0	0	0	0	0	0	0	0	0	0	0	0	0	0	0	0	0	0	0	0	0	0	0	0	0	0	0	0	0	0	0	0	0	0	0	0	0	0	0	0	0	0	0	0	0	0	0	0	0	0	0	0	0	0	0	0	0	0	0	0	0	0	0	0	0	0	0	0	0	0	0	0	0	0	0	0	0	0	0	0	0	0	0	0	0	0	0	0	0	0	0	0	0	0	0	0	0	0	0	0	0	0	0	0	0	0	0	0	0	0	0	0	0	0	0	0	0	0	0	0	0	0	0	0	0	0	0	0	0	0	0	0	0	0	0	0	0	0	0	0	0	0	0	0	0	0	0	0	0	0	0	0	0	0	0	0	0	0	0	0	0	0	0	0	0	0	0	0	0	0	0	0	0	0	0	0	0	0	0	0	0	0	0	0	0	0	0	0	0	0	0	0	0	0	0	0	0	0	0	0	0	0	0	0	0	0	0	0	0	0	0	0	0	0	0	0	0	0	0	0	0	0	0	0	0	0	0	0	0	0	0	0	0	0	0	0	0	0	0	0	0	0	0	0	0	0	0	0	0	0	0	0	0	0	0	0	0	0	0	0	0	0	0	0	0	0	0	0	0	0	0	0	0	0	0	0	0	0	0	0	0	0	0	0	0	0	0	0	0	0	0	0	0	0	0	0	0	0	0	0	0	0	0	0	0	0	0	0	0	0	0	0	0	0	0	0	0	0	0	0	0	0	0	0	0	0	0	0	0	0	0	0	0	0	0	0	0	0	0	0	0	0	0	0	0	0	0	0	0	0	0	0	0	0	0	0	0	0	0	0	0	0	0	0	0	0	0	0	0	0	0	0	0	0	0	0	0	0	0	0	0	0	0	0	0	0	0	0	0	0	0	0	0	0	0	0	0	0	0	0	0	0	0	0	0	0	0	0	0	0	0	0	0	0	0	0	0	0	0	0	0	0	0	0	0	0	0	0	0	0	0	0	0	0	0	0	0	0	0	0	0	0	0	0	0	0	0	0	0	0	0	0	0	0	0	0	0	0	0	0	0	0	0	0	0	0	0	0	0	0	0	0	0	0	0	0	0	0	0	0	0	0	0	0	0	0	0	0	0	0	0	0	0	0	0	0	0	0	0	0	0	0	0	0	0	0	0	0	0	0	0	0	0	0	0	0	0	0	0	0	0	0	0	0	0	0	0	0	0	0	0	0	0	0	0	0	0	0	0	0	0	0	0	0	0	0	0	0	0	0	0	0	0	0	0	0	0	0	0	0	0	0	0	0	0	0	0	0	0	0	0	0	0	0	0	0	0	0	0	0	0	0	0	0	0	0	0	0	0	0	0	0	0	0	0	0	0	0	0	0	0	0	0	0	0	0	0	0	0	0	0	0	0	0	0	0	0	0	0	0	0	0	0	0	0	0	0	0	0	0	0	0</DataArray>