<VTKFile byte_order="LittleEndian" type="PolyData" version="0.1">
        <PolyData>
            <Piece NumberOfLines="252" NumberOfPoints="104">
                <Points>
                <DataArray Name="coords" NumberOfComponents="3" type="Float64">0.5	0.5	0.5	1.5	0.5	0.5	0.5	1.5	0.5	1.5	1.5	0.5	0.5	0.5	1.5	1.5	0.5	1.5	0.5	1.5	1.5	1.5	1.5	1.5	0.833333333333	0.416666666667	0.416666666667	1.16666666667	0.416666666667	0.416666666667	0.833333333333	0.583333333333	0.416666666667	1.16666666667	0.583333333333	0.416666666667	0.833333333333	0.416666666667	0.583333333333	1.16666666667	0.416666666667	0.583333333333	0.833333333333	0.583333333333	0.583333333333	1.16666666667	0.583333333333	0.583333333333	0.416666666667	0.833333333333	0.416666666667	0.583333333333	0.833333333333	0.416666666667	0.416666666667	1.16666666667	0.416666666667	0.583333333333	1.16666666667	0.416666666667	0.416666666667	0.833333333333	0.583333333333	0.583333333333	0.833333333333	0.583333333333	0.416666666667	1.16666666667	0.583333333333	0.583333333333	1.16666666667	0.583333333333	0.416666666667	0.416666666667	0.833333333333	0.583333333333	0.416666666667	0.833333333333	0.416666666667	0.583333333333	0.833333333333	0.583333333333	0.583333333333	0.833333333333	0.416666666667	0.416666666667	1.16666666667	0.583333333333	0.416666666667	1.16666666667	0.416666666667	0.583333333333	1.16666666667	0.583333333333	0.583333333333	1.16666666667	1.41666666667	0.833333333333	0.416666666667	1.58333333333	0.833333333333	0.416666666667	1.41666666667	1.16666666667	0.416666666667	1.58333333333	1.16666666667	0.416666666667	1.41666666667	0.833333333333	0.583333333333	1.58333333333	0.833333333333	0.583333333333	1.41666666667	1.16666666667	0.583333333333	1.58333333333	1.16666666667	0.583333333333	1.41666666667	0.416666666667	0.833333333333	1.58333333333	0.416666666667	0.833333333333	1.41666666667	0.583333333333	0.833333333333	1.58333333333	0.583333333333	0.833333333333	1.41666666667	0.416666666667	1.16666666667	1.58333333333	0.416666666667	1.16666666667	1.41666666667	0.583333333333	1.16666666667	1.58333333333	0.583333333333	1.16666666667	0.833333333333	1.41666666667	0.416666666667	1.16666666667	1.41666666667	0.416666666667	0.833333333333	1.58333333333	0.416666666667	1.16666666667	1.58333333333	0.416666666667	0.833333333333	1.41666666667	0.583333333333	1.16666666667	1.41666666667	0.583333333333	0.833333333333	1.58333333333	0.583333333333	1.16666666667	1.58333333333	0.583333333333	0.416666666667	1.41666666667	0.833333333333	0.583333333333	1.41666666667	0.833333333333	0.416666666667	1.58333333333	0.833333333333	0.583333333333	1.58333333333	0.833333333333	0.416666666667	1.41666666667	1.16666666667	0.583333333333	1.41666666667	1.16666666667	0.416666666667	1.58333333333	1.16666666667	0.583333333333	1.58333333333	1.16666666667	1.41666666667	1.41666666667	0.833333333333	1.58333333333	1.41666666667	0.833333333333	1.41666666667	1.58333333333	0.833333333333	1.58333333333	1.58333333333	0.833333333333	1.41666666667	1.41666666667	1.16666666667	1.58333333333	1.41666666667	1.16666666667	1.41666666667	1.58333333333	1.16666666667	1.58333333333	1.58333333333	1.16666666667	0.833333333333	0.416666666667	1.41666666667	1.16666666667	0.416666666667	1.41666666667	0.833333333333	0.583333333333	1.41666666667	1.16666666667	0.583333333333	1.41666666667	0.833333333333	0.416666666667	1.58333333333	1.16666666667	0.416666666667	1.58333333333	0.833333333333	0.583333333333	1.58333333333	1.16666666667	0.583333333333	1.58333333333	0.416666666667	0.833333333333	1.41666666667	0.583333333333	0.833333333333	1.41666666667	0.416666666667	1.16666666667	1.41666666667	0.583333333333	1.16666666667	1.41666666667	0.416666666667	0.833333333333	1.58333333333	0.583333333333	0.833333333333	1.58333333333	0.416666666667	1.16666666667	1.58333333333	0.583333333333	1.16666666667	1.58333333333	1.41666666667	0.833333333333	1.41666666667	1.58333333333	0.833333333333	1.41666666667	1.41666666667	1.16666666667	1.41666666667	1.58333333333	1.16666666667	1.41666666667	1.41666666667	0.833333333333	1.58333333333	1.58333333333	0.833333333333	1.58333333333	1.41666666667	1.16666666667	1.58333333333	1.58333333333	1.16666666667	1.58333333333	0.833333333333	1.41666666667	1.41666666667	1.16666666667	1.41666666667	1.41666666667	0.833333333333	1.58333333333	1.41666666667	1.16666666667	1.58333333333	1.41666666667	0.833333333333	1.41666666667	1.58333333333	1.16666666667	1.41666666667	1.58333333333	0.833333333333	1.58333333333	1.58333333333	1.16666666667	1.58333333333	1.58333333333</DataArray>
			</Points>
                <Lines>
                <DataArray Name="connectivity" NumberOfComponents="1" type="Int64">0	1	0	2	0	4	1	3	1	5	2	3	2	6	3	7	4	5	4	6	5	7	6	7	0	8	0	10	0	12	0	14	1	9	1	11	1	13	1	15	8	9	8	10	8	12	9	11	9	13	10	11	10	14	11	15	12	13	12	14	13	15	14	15	0	16	0	17	0	20	0	21	2	18	2	19	2	22	2	23	16	17	16	18	16	20	17	19	17	21	18	19	18	22	19	23	20	21	20	22	21	23	22	23	0	24	0	25	0	26	0	27	4	28	4	29	4	30	4	31	24	25	24	26	24	28	25	27	25	29	26	27	26	30	27	31	28	29	28	30	29	31	30	31	1	32	1	33	1	36	1	37	3	34	3	35	3	38	3	39	32	33	32	34	32	36	33	35	33	37	34	35	34	38	35	39	36	37	36	38	37	39	38	39	1	40	1	41	1	42	1	43	5	44	5	45	5	46	5	47	40	41	40	42	40	44	41	43	41	45	42	43	42	46	43	47	44	45	44	46	45	47	46	47	2	48	2	50	2	52	2	54	3	49	3	51	3	53	3	55	48	49	48	50	48	52	49	51	49	53	50	51	50	54	51	55	52	53	52	54	53	55	54	55	2	56	2	57	2	58	2	59	6	60	6	61	6	62	6	63	56	57	56	58	56	60	57	59	57	61	58	59	58	62	59	63	60	61	60	62	61	63	62	63	3	64	3	65	3	66	3	67	7	68	7	69	7	70	7	71	64	65	64	66	64	68	65	67	65	69	66	67	66	70	67	71	68	69	68	70	69	71	70	71	4	72	4	74	4	76	4	78	5	73	5	75	5	77	5	79	72	73	72	74	72	76	73	75	73	77	74	75	74	78	75	79	76	77	76	78	77	79	78	79	4	80	4	81	4	84	4	85	6	82	6	83	6	86	6	87	80	81	80	82	80	84	81	83	81	85	82	83	82	86	83	87	84	85	84	86	85	87	86	87	5	88	5	89	5	92	5	93	7	90	7	91	7	94	7	95	88	89	88	90	88	92	89	91	89	93	90	91	90	94	91	95	92	93	92	94	93	95	94	95	6	96	6	98	6	100	6	102	7	97	7	99	7	101	7	103	96	97	96	98	96	100	97	99	97	101	98	99	98	102	99	103	100	101	100	102	101	103	102	103</DataArray>
			<DataArray Name="offsets" NumberOfComponents="1" type="Int64">2	4	6	8	10	12	14	16	18	20	22	24	26	28	30	32	34	36	38	40	42	44	46	48	50	52	54	56	58	60	62	64	66	68	70	72	74	76	78	80	82	84	86	88	90	92	94	96	98	100	102	104	106	108	110	112	114	116	118	120	122	124	126	128	130	132	134	136	138	140	142	144	146	148	150	152	154	156	158	160	162	164	166	168	170	172	174	176	178	180	182	184	186	188	190	192	194	196	198	200	202	204	206	208	210	212	214	216	218	220	222	224	226	228	230	232	234	236	238	240	242	244	246	248	250	252	254	256	258	260	262	264	266	268	270	272	274	276	278	280	282	284	286	288	290	292	294	296	298	300	302	304	306	308	310	312	314	316	318	320	322	324	326	328	330	332	334	336	338	340	342	344	346	348	350	352	354	356	358	360	362	364	366	368	370	372	374	376	378	380	382	384	386	388	390	392	394	396	398	400	402	404	406	408	410	412	414	416	418	420	422	424	426	428	430	432	434	436	438	440	442	444	446	448	450	452	454	456	458	460	462	464	466	468	470	472	474	476	478	480	482	484	486	488	490	492	494	496	498	500	502	504</DataArray>
			</Lines>
                <PointData>
                <DataArray Name="pore.TestMultiNet_TestMultiThroat" NumberOfComponents="1" type="Int64">1	1	1	1	1	1	1	1	1	1	1	1	1	1	1	1	1	1	1	1	1	1	1	1	1	1	1	1	1	1	1	1	1	1	1	1	1	1	1	1	1	1	1	1	1	1	1	1	1	1	1	1	1	1	1	1	1	1	1	1	1	1	1	1	1	1	1	1	1	1	1	1	1	1	1	1	1	1	1	1	1	1	1	1	1	1	1	1	1	1	1	1	1	1	1	1	1	1	1	1	1	1	1	1</DataArray>
			<DataArray Name="pore.TestMultiNet_area" NumberOfComponents="1" type="Float64">1.0	1.0	1.0	1.0	1.0	1.0	1.0	1.0	1.0	1.0	1.0	1.0	1.0	1.0	1.0	1.0	1.0	1.0	1.0	1.0	1.0	1.0	1.0	1.0	1.0	1.0	1.0	1.0	1.0	1.0	1.0	1.0	1.0	1.0	1.0	1.0	1.0	1.0	1.0	1.0	1.0	1.0	1.0	1.0	1.0	1.0	1.0	1.0	1.0	1.0	1.0	1.0	1.0	1.0	1.0	1.0	1.0	1.0	1.0	1.0	1.0	1.0	1.0	1.0	1.0	1.0	1.0	1.0	1.0	1.0	1.0	1.0	1.0	1.0	1.0	1.0	1.0	1.0	1.0	1.0	1.0	1.0	1.0	1.0	1.0	1.0	1.0	1.0	1.0	1.0	1.0	1.0	1.0	1.0	1.0	1.0	1.0	1.0	1.0	1.0	1.0	1.0	1.0	1.0</DataArray>
			<DataArray Name="pore.TestMultiNet_back" NumberOfComponents="1" type="Int64">0	1	0	1	0	1	0	1	0	0	0	0	0	0	0	0	0	0	0	0	0	0	0	0	0	0	0	0	0	0	0	0	0	0	0	0	0	0	0	0	0	0	0	0	0	0	0	0	0	0	0	0	0	0	0	0	0	0	0	0	0	0	0	0	0	0	0	0	0	0	0	0	0	0	0	0	0	0	0	0	0	0	0	0	0	0	0	0	0	0	0	0	0	0	0	0	0	0	0	0	0	0	0	0</DataArray>
			<DataArray Name="pore.TestMultiNet_bottom" NumberOfComponents="1" type="Int64">1	1	1	1	0	0	0	0	0	0	0	0	0	0	0	0	0	0	0	0	0	0	0	0	0	0	0	0	0	0	0	0	0	0	0	0	0	0	0	0	0	0	0	0	0	0	0	0	0	0	0	0	0	0	0	0	0	0	0	0	0	0	0	0	0	0	0	0	0	0	0	0	0	0	0	0	0	0	0	0	0	0	0	0	0	0	0	0	0	0	0	0	0	0	0	0	0	0	0	0	0	0	0	0</DataArray>
			<DataArray Name="pore.TestMultiNet_diameter" NumberOfComponents="1" type="Float64">0.000277899098875	7.45518744063e-05	0.0001439371346	2e-05	0.00103589493585	0.002	3.86139545777e-05	0.000536539159056	4.90347177596e-08	1.06499062597e-07	3.492490704e-08	4.03917950033e-08	2.8080084911e-09	7.40373811169e-09	1.45944552894e-08	1.23169642213e-07	4.55957887129e-09	1.5695199407e-07	2.20361266022e-09	1.9053614058e-07	1.2928743265e-07	7.96214341107e-08	1.60802632223e-08	7.77147903714e-09	1.85973493052e-08	9.43439827643e-09	3.7559016037e-09	2.54854997141e-09	5.27330179746e-09	1.95210727462e-08	3.57817497985e-09	3.32722849877e-08	9.66586047714e-08	5.14702540003e-08	2.61107573805e-08	5.67102516699e-08	5.40267624227e-08	2.09933925806e-09	2.48752146945e-08	2.87689977658e-08	3.24755347838e-09	4.45039354191e-08	5.53522474151e-09	6.4016680932e-09	2.42795437814e-09	3.84804836552e-08	8.98796918144e-09	7.05339842835e-09	6.09874565877e-09	2.04906771877e-08	2e-07	9.20847875352e-08	1.35709091468e-07	6.55872571804e-08	4.2398040477e-08	1.77173358082e-08	3.40885825491e-09	1.26191468896e-08	1.49525136033e-07	8.77274001156e-08	6.71963657257e-09	3.09388153049e-09	8.15748551794e-09	2.94748123116e-09	1.11788831528e-07	1.64747741391e-07	4.67144293818e-08	6.24837142721e-08	1.81520104336e-07	9.90300133895e-09	3.94245584304e-09	3.01979432124e-08	4.34382280403e-09	1.03948797417e-08	5.95270288326e-08	2.25767578337e-08	2.67513550305e-09	1.14531443002e-08	4.13827616223e-09	6.88449519137e-08	7.22644551359e-08	8.35762012059e-08	1.01459601813e-07	1.68789639313e-08	1.39038559236e-08	2.74076690133e-08	3.16978638492e-08	3.66596142166e-08	2.369813702e-08	1.7293070059e-07	7.58538038146e-08	1.1734134132e-07	8.56266479744e-09	1.32459352343e-08	2.15084415223e-08	1.20220177288e-08	1.09111895623e-08	1.42449711697e-07	4.78605146236e-09	5.81015730102e-09	1.53193564695e-08	2.31306528358e-09	2e-09	5.02377286302e-09</DataArray>
			<DataArray Name="pore.TestMultiNet_front" NumberOfComponents="1" type="Int64">1	0	1	0	1	0	1	0	0	0	0	0	0	0	0	0	0	0	0	0	0	0	0	0	0	0	0	0	0	0	0	0	0	0	0	0	0	0	0	0	0	0	0	0	0	0	0	0	0	0	0	0	0	0	0	0	0	0	0	0	0	0	0	0	0	0	0	0	0	0	0	0	0	0	0	0	0	0	0	0	0	0	0	0	0	0	0	0	0	0	0	0	0	0	0	0	0	0	0	0	0	0	0	0</DataArray>
			<DataArray Name="pore.TestMultiNet_inlet" NumberOfComponents="1" type="Int64">1	1	0	0	1	1	0	0	0	0	0	0	0	0	0	0	0	0	0	0	0	0	0	0	0	0	0	0	0	0	0	0	0	0	0	0	0	0	0	0	0	0	0	0	0	0	0	0	0	0	0	0	0	0	0	0	0	0	0	0	0	0	0	0	0	0	0	0	0	0	0	0	0	0	0	0	0	0	0	0	0	0	0	0	0	0	0	0	0	0	0	0	0	0	0	0	0	0	0	0	0	0	0	0</DataArray>
			<DataArray Name="pore.TestMultiNet_left" NumberOfComponents="1" type="Int64">1	1	0	0	1	1	0	0	0	0	0	0	0	0	0	0	0	0	0	0	0	0	0	0	0	0	0	0	0	0	0	0	0	0	0	0	0	0	0	0	0	0	0	0	0	0	0	0	0	0	0	0	0	0	0	0	0	0	0	0	0	0	0	0	0	0	0	0	0	0	0	0	0	0	0	0	0	0	0	0	0	0	0	0	0	0	0	0	0	0	0	0	0	0	0	0	0	0	0	0	0	0	0	0</DataArray>
			<DataArray Name="pore.TestMultiNet_length" NumberOfComponents="1" type="Float64">1.0	1.0	1.0	1.0	1.0	1.0	1.0	1.0	1.0	1.0	1.0	1.0	1.0	1.0	1.0	1.0	1.0	1.0	1.0	1.0	1.0	1.0	1.0	1.0	1.0	1.0	1.0	1.0	1.0	1.0	1.0	1.0	1.0	1.0	1.0	1.0	1.0	1.0	1.0	1.0	1.0	1.0	1.0	1.0	1.0	1.0	1.0	1.0	1.0	1.0	1.0	1.0	1.0	1.0	1.0	1.0	1.0	1.0	1.0	1.0	1.0	1.0	1.0	1.0	1.0	1.0	1.0	1.0	1.0	1.0	1.0	1.0	1.0	1.0	1.0	1.0	1.0	1.0	1.0	1.0	1.0	1.0	1.0	1.0	1.0	1.0	1.0	1.0	1.0	1.0	1.0	1.0	1.0	1.0	1.0	1.0	1.0	1.0	1.0	1.0	1.0	1.0	1.0	1.0</DataArray>
			<DataArray Name="pore.TestMultiNet_macro" NumberOfComponents="1" type="Int64">1	1	1	1	1	1	1	1	0	0	0	0	0	0	0	0	0	0	0	0	0	0	0	0	0	0	0	0	0	0	0	0	0	0	0	0	0	0	0	0	0	0	0	0	0	0	0	0	0	0	0	0	0	0	0	0	0	0	0	0	0	0	0	0	0	0	0	0	0	0	0	0	0	0	0	0	0	0	0	0	0	0	0	0	0	0	0	0	0	0	0	0	0	0	0	0	0	0	0	0	0	0	0	0</DataArray>
			<DataArray Name="pore.TestMultiNet_micro" NumberOfComponents="1" type="Int64">0	0	0	0	0	0	0	0	1	1	1	1	1	1	1	1	1	1	1	1	1	1	1	1	1	1	1	1	1	1	1	1	1	1	1	1	1	1	1	1	1	1	1	1	1	1	1	1	1	1	1	1	1	1	1	1	1	1	1	1	1	1	1	1	1	1	1	1	1	1	1	1	1	1	1	1	1	1	1	1	1	1	1	1	1	1	1	1	1	1	1	1	1	1	1	1	1	1	1	1	1	1	1	1</DataArray>
			<DataArray Name="pore.TestMultiNet_outlet" NumberOfComponents="1" type="Int64">0	0	1	1	0	0	1	1	0	0	0	0	0	0	0	0	0	0	0	0	0	0	0	0	0	0	0	0	0	0	0	0	0	0	0	0	0	0	0	0	0	0	0	0	0	0	0	0	0	0	0	0	0	0	0	0	0	0	0	0	0	0	0	0	0	0	0	0	0	0	0	0	0	0	0	0	0	0	0	0	0	0	0	0	0	0	0	0	0	0	0	0	0	0	0	0	0	0	0	0	0	0	0	0</DataArray>
			<DataArray Name="pore.TestMultiNet_right" NumberOfComponents="1" type="Int64">0	0	1	1	0	0	1	1	0	0	0	0	0	0	0	0	0	0	0	0	0	0	0	0	0	0	0	0	0	0	0	0	0	0	0	0	0	0	0	0	0	0	0	0	0	0	0	0	0	0	0	0	0	0	0	0	0	0	0	0	0	0	0	0	0	0	0	0	0	0	0	0	0	0	0	0	0	0	0	0	0	0	0	0	0	0	0	0	0	0	0	0	0	0	0	0	0	0	0	0	0	0	0	0</DataArray>
			<DataArray Name="pore.TestMultiNet_top" NumberOfComponents="1" type="Int64">0	0	0	0	1	1	1	1	0	0	0	0	0	0	0	0	0	0	0	0	0	0	0	0	0	0	0	0	0	0	0	0	0	0	0	0	0	0	0	0	0	0	0	0	0	0	0	0	0	0	0	0	0	0	0	0	0	0	0	0	0	0	0	0	0	0	0	0	0	0	0	0	0	0	0	0	0	0	0	0	0	0	0	0	0	0	0	0	0	0	0	0	0	0	0	0	0	0	0	0	0	0	0	0</DataArray>
			<DataArray Name="pore.TestMultiNet_volume" NumberOfComponents="1" type="Float64">0.0	0.0	0.0	0.0	0.0	0.0	0.0	0.0	0.0	0.0	0.0	0.0	0.0	0.0	0.0	0.0	0.0	0.0	0.0	0.0	0.0	0.0	0.0	0.0	0.0	0.0	0.0	0.0	0.0	0.0	0.0	0.0	0.0	0.0	0.0	0.0	0.0	0.0	0.0	0.0	0.0	0.0	0.0	0.0	0.0	0.0	0.0	0.0	0.0	0.0	0.0	0.0	0.0	0.0	0.0	0.0	0.0	0.0	0.0	0.0	0.0	0.0	0.0	0.0	0.0	0.0	0.0	0.0	0.0	0.0	0.0	0.0	0.0	0.0	0.0	0.0	0.0	0.0	0.0	0.0	0.0	0.0	0.0	0.0	0.0	0.0	0.0	0.0	0.0	0.0	0.0	0.0	0.0	0.0	0.0	0.0	0.0	0.0	0.0	0.0	0.0	0.0	0.0	0.0</DataArray>
			<DataArray Name="pore.all" NumberOfComponents="1" type="Int64">1	1	1	1	1	1	1	1	1	1	1	1	1	1	1	1	1	1	1	1	1	1	1	1	1	1	1	1	1	1	1	1	1	1	1	1	1	1	1	1	1	1	1	1	1	1	1	1	1	1	1	1	1	1	1	1	1	1	1	1	1	1	1	1	1	1	1	1	1	1	1	1	1	1	1	1	1	1	1	1	1	1	1	1	1	1	1	1	1	1	1	1	1	1	1	1	1	1	1	1	1	1	1	1</DataArray>
			</PointData>
                <CellData>
                <DataArray Name="throat.TestMultiNet_TestMultiThroat" NumberOfComponents="1" type="Int64">1	1	1	1	1	1	1	1	1	1	1	1	1	1	1	1	1	1	1	1	1	1	1	1	1	1	1	1	1	1	1	1	1	1	1	1	1	1	1	1	1	1	1	1	1	1	1	1	1	1	1	1	1	1	1	1	1	1	1	1	1	1	1	1	1	1	1	1	1	1	1	1	1	1	1	1	1	1	1	1	1	1	1	1	1	1	1	1	1	1	1	1	1	1	1	1	1	1	1	1	1	1	1	1	1	1	1	1	1	1	1	1	1	1	1	1	1	1	1	1	1	1	1	1	1	1	1	1	1	1	1	1	1	1	1	1	1	1	1	1	1	1	1	1	1	1	1	1	1	1	1	1	1	1	1	1	1	1	1	1	1	1	1	1	1	1	1	1	1	1	1	1	1	1	1	1	1	1	1	1	1	1	1	1	1	1	1	1	1	1	1	1	1	1	1	1	1	1	1	1	1	1	1	1	1	1	1	1	1	1	1	1	1	1	1	1	1	1	1	1	1	1	1	1	1	1	1	1	1	1	1	1	1	1	1	1	1	1	1	1	1	1	1	1	1	1	1	1	1	1	1	1</DataArray>
			<DataArray Name="throat.TestMultiNet_area" NumberOfComponents="1" type="Float64">1.10307341576e-11	1.67657350992e-09	4.77494149231e-10	5.88677104983e-09	1.35992046398e-10	2.06695818514e-08	2.54824265911e-07	8.94736856144e-07	7.25748649462e-08	3.14159265359e-06	3.14159265359e-12	3.87310225963e-11	2.66698249756e-17	2.07602966366e-13	6.16647396137e-14	3.23371822237e-15	8.80741818289e-13	3.36076832707e-17	1.29482964567e-14	3.88329230236e-14	2.49305272074e-12	2.5171874805e-17	6.59668284984e-13	4.4014258253e-13	1.90360418513e-16	1.04752024462e-12	1.33279985083e-17	2.1995718715e-13	3.7726609834e-17	6.47079146633e-15	2.79859895528e-12	4.61863762799e-14	7.33416556171e-14	5.13498280944e-15	1.07823823036e-15	3.66518144591e-14	3.14159265359e-12	7.9217934187e-18	1.12060131541e-17	1.27011906018e-16	4.84656890412e-15	1.64746100848e-13	1.69577194474e-16	1.0576610849e-17	3.73648876055e-18	2.82569164886e-17	7.549236148e-17	1.41211328216e-17	8.47446354472e-17	1.61602079067e-15	2.64141150518e-12	4.31742882269e-15	1.00791990809e-16	1.99754767369e-17	4.07493404639e-15	6.34730259948e-17	1.51063047194e-16	1.06790009669e-16	2.03641062292e-15	1.0886764455e-14	2.56616019367e-15	1.18728704877e-17	3.45932110836e-14	1.84937230522e-13	5.33673202157e-17	9.60518029472e-16	1.01767738519e-15	4.75407677156e-17	9.51308595503e-17	5.87646832913e-13	9.79205224731e-14	1.23393457137e-13	1.63166517445e-14	2.33046593821e-13	2.77176602607e-13	2.24236526817e-17	1.24588005259e-12	1.58518057935e-17	1.28241483642e-15	6.92223130402e-14	5.49322890933e-14	5.70905331335e-16	2.42202801045e-15	2.96514045506e-12	5.2855635066e-18	4.94086050165e-13	9.06569113519e-16	3.84605934791e-15	1.48180153406e-12	2.15759514587e-15	5.08574866321e-16	2.30812146209e-14	4.1542132331e-13	1.1534623655e-14	5.03698657332e-17	1.32002098376e-12	1.1646288109e-13	8.89268108977e-18	1.76239741682e-12	3.70066335648e-13	3.42615318402e-15	2.13690815258e-16	3.92088570182e-13	2.05612471912e-14	3.49281012493e-13	3.63003973542e-15	1.71218838398e-15	1.7966854402e-16	7.05690559855e-18	1.45352276889e-14	3.99716782714e-17	2.22086550009e-12	1.92203260797e-15	8.72297277562e-14	7.6961090287e-15	1.56998188924e-12	2.5910026927e-14	3.26502322117e-14	4.44403517488e-18	5.93335727905e-18	1.37188351248e-14	4.1143826924e-14	6.7901271396e-16	1.55492892396e-13	2.2859912245e-15	1.35872991179e-15	9.98255985542e-18	6.28644474739e-18	9.69816618185e-15	1.46759404085e-13	1.22210362327e-14	1.88535245376e-17	1.03747663458e-13	6.85586104322e-15	2.11641950591e-17	1.4395864121e-15	8.97876941032e-17	1.10985700504e-12	2.74519037063e-14	2.71886952222e-15	1.81407880341e-15	1.83164054839e-14	7.62231883868e-16	3.29663127759e-13	3.52662334218e-18	1.72876374757e-14	1.86727571975e-12	2.17848240593e-14	2.88066641244e-15	7.40516619576e-13	9.42187461463e-18	9.24206714814e-14	9.15345433242e-15	4.8934875975e-14	4.80010006655e-16	1.21038611014e-15	5.76432155098e-15	4.03586363347e-16	1.09921571098e-13	2.37580592216e-17	3.56076389863e-17	1.94063943279e-14	6.10734989183e-15	4.98869201369e-18	2.93671072819e-13	8.63933702977e-15	1.77945884433e-17	2.39880563841e-16	3.3933032733e-16	2.35302672688e-12	1.66340975891e-12	9.33153780734e-13	6.40874960464e-16	1.52525459249e-15	2.69280103775e-16	8.31273651245e-13	4.19442936553e-18	1.17590335649e-12	6.53343394325e-14	4.48705701731e-17	1.74549957405e-13	1.39857395898e-12	2.26407317134e-16	8.15409588592e-15	1.14240298383e-15	5.54640779277e-13	8.23303410639e-14	5.65431498684e-17	5.18469358189e-14	5.60010149067e-18	6.66054405682e-18	3.95884303569e-18	4.23503482255e-17	6.98924408243e-13	5.44055990431e-15	3.05209165499e-15	7.99848276404e-17	5.99079695986e-17	1.02752932254e-14	2.09612730411e-12	3.20271337547e-16	1.13144963936e-16	8.55650318234e-16	3.59523496318e-16	2.54155588419e-16	3.32854532548e-18	1.30736464029e-13	3.80918338252e-16	4.35922501359e-14	5.388395889e-16	1.49614656726e-17	2.44547519377e-14	4.27603337311e-16	7.12522213269e-17	3.14159265359e-18	4.57435419243e-15	7.26384568079e-15	2.90855358516e-14	4.70849474731e-18	7.77061356725e-14	2.46914936472e-13	3.11147110541e-13	1.6795129061e-17	1.38516445064e-13	1.34570242764e-16	5.23488559468e-13	5.8201248297e-14	1.60052640503e-16	3.08163836223e-14	7.19420002594e-16	4.53049534586e-16	8.07591452406e-16	3.17200580263e-17	2.85304662156e-16	7.47685417318e-18	9.88684720556e-13	3.02282824119e-16	1.54002028632e-14	1.97839521342e-12	2.61608568714e-13	1.95942638667e-13	2.01688554521e-16	6.04879270308e-16	6.22617039956e-13	8.39321050204e-18	1.25794117569e-17	7.84583936977e-13	2.9938454046e-17	4.6633497629e-13	1.42578367691e-16	6.72502349176e-17	1.19878094437e-16</DataArray>
			<DataArray Name="throat.TestMultiNet_back" NumberOfComponents="1" type="Int64">0	0	0	1	1	0	0	1	0	0	1	0	0	0	0	0	0	0	0	0	0	0	0	0	0	0	0	0	0	0	0	0	0	0	0	0	0	0	0	0	0	0	0	0	0	0	0	0	0	0	0	0	0	0	0	0	0	0	0	0	0	0	0	0	0	0	0	0	0	0	0	0	0	0	0	0	0	0	0	0	0	0	0	0	0	0	0	0	0	0	0	0	0	0	0	0	0	0	0	0	0	0	0	0	0	0	0	0	0	0	0	0	0	0	0	0	0	0	0	0	0	0	0	0	0	0	0	0	0	0	0	0	0	0	0	0	0	0	0	0	0	0	0	0	0	0	0	0	0	0	0	0	0	0	0	0	0	0	0	0	0	0	0	0	0	0	0	0	0	0	0	0	0	0	0	0	0	0	0	0	0	0	0	0	0	0	0	0	0	0	0	0	0	0	0	0	0	0	0	0	0	0	0	0	0	0	0	0	0	0	0	0	0	0	0	0	0	0	0	0	0	0	0	0	0	0	0	0	0	0	0	0	0	0	0	0	0	0	0	0	0	0	0	0	0	0	0	0	0	0	0	0</DataArray>
			<DataArray Name="throat.TestMultiNet_bottom" NumberOfComponents="1" type="Int64">1	1	0	1	0	1	0	0	0	0	0	0	0	0	0	0	0	0	0	0	0	0	0	0	0	0	0	0	0	0	0	0	0	0	0	0	0	0	0	0	0	0	0	0	0	0	0	0	0	0	0	0	0	0	0	0	0	0	0	0	0	0	0	0	0	0	0	0	0	0	0	0	0	0	0	0	0	0	0	0	0	0	0	0	0	0	0	0	0	0	0	0	0	0	0	0	0	0	0	0	0	0	0	0	0	0	0	0	0	0	0	0	0	0	0	0	0	0	0	0	0	0	0	0	0	0	0	0	0	0	0	0	0	0	0	0	0	0	0	0	0	0	0	0	0	0	0	0	0	0	0	0	0	0	0	0	0	0	0	0	0	0	0	0	0	0	0	0	0	0	0	0	0	0	0	0	0	0	0	0	0	0	0	0	0	0	0	0	0	0	0	0	0	0	0	0	0	0	0	0	0	0	0	0	0	0	0	0	0	0	0	0	0	0	0	0	0	0	0	0	0	0	0	0	0	0	0	0	0	0	0	0	0	0	0	0	0	0	0	0	0	0	0	0	0	0	0	0	0	0	0	0</DataArray>
			<DataArray Name="throat.TestMultiNet_diameter" NumberOfComponents="1" type="Float64">3.74763484572e-06	4.62025940017e-05	2.46569347888e-05	8.65752256217e-05	1.31586644932e-05	0.000162226166158	0.000569607173687	0.00106733984624	0.000303982216591	0.002	2e-06	7.02238346843e-06	5.82727001348e-09	5.14128686597e-07	2.80203470699e-07	6.41661742451e-08	1.05895954207e-06	6.54145483415e-09	1.28398921669e-07	2.22359198666e-07	1.78164342986e-06	5.66125661111e-09	9.16469173976e-07	7.48603327136e-07	1.55683786119e-08	1.15487843488e-06	4.11943379033e-09	5.29205242631e-07	6.93072950918e-09	9.07682079842e-08	1.88766704154e-06	2.42500145789e-07	3.05583861171e-07	8.08582906975e-08	3.70520654423e-08	2.16024395742e-07	2e-06	3.17589997417e-09	3.77729256036e-09	1.27167834532e-08	7.85547145944e-08	4.57996998288e-07	1.46939575979e-08	3.66968107364e-09	2.18115686011e-09	5.99815167244e-09	9.80407364118e-09	4.2402340413e-09	1.03875031194e-08	4.53605729218e-08	1.83388919576e-06	7.41425728487e-08	1.13283868441e-08	5.04317032296e-09	7.20303211853e-08	8.98979236249e-09	1.38686497337e-08	1.16605858898e-08	5.09199227653e-08	1.17734697597e-07	5.71606213814e-08	3.88805969791e-09	2.09870065352e-07	4.85251888399e-07	8.24314154283e-09	3.49709813782e-08	3.59964871982e-08	7.78015330457e-09	1.10056518346e-08	8.64994327151e-07	3.53095286649e-07	3.96370318249e-07	1.44135374696e-07	5.4472391082e-07	5.94064147475e-07	5.34328375924e-09	1.25948551042e-06	4.49256563577e-09	4.04081833603e-08	2.96878066453e-07	2.64465428282e-07	2.6961069047e-08	5.55321694278e-08	1.94302189465e-06	2.59418358503e-09	7.93151875476e-07	3.39746912476e-08	6.99782455707e-08	1.37356773063e-06	5.2413122987e-08	2.54467607223e-08	1.71429038368e-07	7.27276327515e-07	1.21187206301e-07	8.0083022492e-09	1.29641926721e-06	3.85078103373e-07	3.36489423641e-09	1.49798333924e-06	6.86427776771e-07	6.60478138943e-08	1.64948354443e-08	7.0655691391e-07	1.61800472845e-07	6.6687209968e-07	6.79846316464e-08	4.6690748104e-08	1.51248502535e-08	2.99752085423e-09	1.36039798167e-07	7.13396954329e-09	1.68157479116e-06	4.94692624034e-08	3.33263167565e-07	9.89898497622e-08	1.41384688913e-06	1.81630589077e-07	2.03891066005e-07	2.37872262419e-09	2.74856055431e-09	1.32164153191e-07	2.28879766387e-07	2.94031603538e-08	4.44949097678e-07	5.39501105277e-08	4.15931322973e-08	3.56513533623e-09	2.82916066143e-09	1.1112195415e-07	4.32272919396e-07	1.24740958026e-07	4.89949517797e-09	3.63449622078e-07	9.34299384215e-08	5.19105866676e-09	4.28128292449e-08	1.06921112397e-08	1.18874464366e-06	1.86956811529e-07	5.88368268405e-08	4.80599299809e-08	1.52712709948e-07	3.11529096041e-08	6.47873545304e-07	2.11901776742e-09	1.4836206951e-07	1.54191092068e-06	1.66545187464e-07	6.0562186152e-08	9.71007231476e-07	3.46356800783e-09	3.43035936428e-07	1.07956194945e-07	2.49611336297e-07	2.47218066157e-08	3.9256992496e-08	8.56700773157e-08	2.2668527026e-08	3.74107593002e-07	5.4999727733e-09	6.73327959111e-09	1.57190930651e-07	8.81823077256e-08	2.52027775222e-09	6.11484769277e-07	1.0488062522e-07	4.75991320176e-09	1.74764246886e-08	2.07857833984e-08	1.73088609633e-06	1.45530721298e-06	1.09001297926e-06	2.85654921696e-08	4.40682931704e-08	1.85164272131e-08	1.0287907879e-06	2.31095507005e-09	1.22360396137e-06	2.88420291579e-07	7.55850410725e-09	4.71427521789e-07	1.33443608719e-06	1.6978537905e-08	1.01892675564e-07	3.81385979689e-08	8.403514582e-07	3.23768815629e-07	8.48486737647e-09	2.56931058765e-07	2.6702566679e-09	2.91212432471e-09	2.24511814933e-09	7.34316948558e-09	9.43344155309e-07	8.32294179702e-08	6.2338140727e-08	1.00915729959e-08	8.73368169432e-09	1.14380547596e-07	1.63366831835e-06	2.01936161202e-08	1.20025264995e-08	3.3006784479e-08	2.13953156736e-08	1.79889117428e-08	2.05864895862e-09	4.07993671447e-07	2.20227221655e-08	2.35591546361e-07	2.61929737307e-08	4.36457669672e-09	1.76456105657e-07	2.33332697778e-08	9.52476487078e-09	2e-09	7.63167651924e-08	9.61697227179e-08	1.92439222681e-07	2.44847742658e-09	3.14544948786e-07	5.60697655874e-07	6.29416241744e-07	4.62430778382e-09	4.19957873425e-07	1.30896965065e-08	8.1641064124e-07	2.72220739263e-07	1.42753406659e-08	1.98082402686e-07	3.02653927213e-08	2.40175057647e-08	3.20664524573e-08	6.3550949828e-09	1.90594117998e-08	3.08542159251e-09	1.12197704232e-06	1.96183191268e-08	1.40029094414e-07	1.58712665557e-06	5.77139822684e-07	4.99481647362e-07	1.60249132084e-08	2.77516883585e-08	8.90359835403e-07	3.26903158726e-09	4.00207502408e-09	9.99481512947e-07	6.17404434707e-09	7.70555729916e-07	1.34735450409e-08	9.25341334264e-09	1.23544943395e-08</DataArray>
			<DataArray Name="throat.TestMultiNet_front" NumberOfComponents="1" type="Int64">0	1	1	0	0	0	1	0	0	1	0	0	0	0	0	0	0	0	0	0	0	0	0	0	0	0	0	0	0	0	0	0	0	0	0	0	0	0	0	0	0	0	0	0	0	0	0	0	0	0	0	0	0	0	0	0	0	0	0	0	0	0	0	0	0	0	0	0	0	0	0	0	0	0	0	0	0	0	0	0	0	0	0	0	0	0	0	0	0	0	0	0	0	0	0	0	0	0	0	0	0	0	0	0	0	0	0	0	0	0	0	0	0	0	0	0	0	0	0	0	0	0	0	0	0	0	0	0	0	0	0	0	0	0	0	0	0	0	0	0	0	0	0	0	0	0	0	0	0	0	0	0	0	0	0	0	0	0	0	0	0	0	0	0	0	0	0	0	0	0	0	0	0	0	0	0	0	0	0	0	0	0	0	0	0	0	0	0	0	0	0	0	0	0	0	0	0	0	0	0	0	0	0	0	0	0	0	0	0	0	0	0	0	0	0	0	0	0	0	0	0	0	0	0	0	0	0	0	0	0	0	0	0	0	0	0	0	0	0	0	0	0	0	0	0	0	0	0	0	0	0	0</DataArray>
			<DataArray Name="throat.TestMultiNet_inlet" NumberOfComponents="1" type="Int64">1	0	1	0	1	0	0	0	1	0	0	0	0	0	0	0	0	0	0	0	0	0	0	0	0	0	0	0	0	0	0	0	0	0	0	0	0	0	0	0	0	0	0	0	0	0	0	0	0	0	0	0	0	0	0	0	0	0	0	0	0	0	0	0	0	0	0	0	0	0	0	0	0	0	0	0	0	0	0	0	0	0	0	0	0	0	0	0	0	0	0	0	0	0	0	0	0	0	0	0	0	0	0	0	0	0	0	0	0	0	0	0	0	0	0	0	0	0	0	0	0	0	0	0	0	0	0	0	0	0	0	0	0	0	0	0	0	0	0	0	0	0	0	0	0	0	0	0	0	0	0	0	0	0	0	0	0	0	0	0	0	0	0	0	0	0	0	0	0	0	0	0	0	0	0	0	0	0	0	0	0	0	0	0	0	0	0	0	0	0	0	0	0	0	0	0	0	0	0	0	0	0	0	0	0	0	0	0	0	0	0	0	0	0	0	0	0	0	0	0	0	0	0	0	0	0	0	0	0	0	0	0	0	0	0	0	0	0	0	0	0	0	0	0	0	0	0	0	0	0	0	0</DataArray>
			<DataArray Name="throat.TestMultiNet_left" NumberOfComponents="1" type="Int64">1	0	1	0	1	0	0	0	1	0	0	0	0	0	0	0	0	0	0	0	0	0	0	0	0	0	0	0	0	0	0	0	0	0	0	0	0	0	0	0	0	0	0	0	0	0	0	0	0	0	0	0	0	0	0	0	0	0	0	0	0	0	0	0	0	0	0	0	0	0	0	0	0	0	0	0	0	0	0	0	0	0	0	0	0	0	0	0	0	0	0	0	0	0	0	0	0	0	0	0	0	0	0	0	0	0	0	0	0	0	0	0	0	0	0	0	0	0	0	0	0	0	0	0	0	0	0	0	0	0	0	0	0	0	0	0	0	0	0	0	0	0	0	0	0	0	0	0	0	0	0	0	0	0	0	0	0	0	0	0	0	0	0	0	0	0	0	0	0	0	0	0	0	0	0	0	0	0	0	0	0	0	0	0	0	0	0	0	0	0	0	0	0	0	0	0	0	0	0	0	0	0	0	0	0	0	0	0	0	0	0	0	0	0	0	0	0	0	0	0	0	0	0	0	0	0	0	0	0	0	0	0	0	0	0	0	0	0	0	0	0	0	0	0	0	0	0	0	0	0	0	0</DataArray>